         0       -532.607569673       -532.596474251       -532.592849222       -532.585598927       -532.576443670       -532.564964483       -532.551274075       -532.544920279       -532.537712758       -532.529085590       -532.556775324       -532.586099628       -532.600494993       -532.700564462          1.012358799          0.751074467          0.991485433          0.859628112          0.414109464          1.191083169          0.275993158          0.182019597          0.172165353          0.951930754          1.127197628          1.822444279          4.991793802
         1       -532.607569675       -532.600810902       -532.597134514       -532.590465908       -532.581692109       -532.570456659       -532.559113903       -532.551443673       -532.543537218       -532.535167394       -532.625232525       -532.662042894       -532.673997223       -532.700564465          0.997208576          0.773264898          0.961205166          0.852976652          0.449331493          1.094528628          0.330501480          0.193726768          0.209705924          0.978011652          1.121868870          1.987362831          4.783156272
         2       -532.607569678       -532.604911942       -532.601261999       -532.594956653       -532.586499171       -532.575452217       -532.565354449       -532.556487424       -532.547475937       -532.537353228       -532.640988703       -532.682090897       -532.692087168       -532.700564466          0.987232323          0.786118235          0.944323731          0.847553633          0.473384648          1.039114138          0.360781438          0.196144139          0.249547062          0.952993390          1.174751286          2.087287812          4.666394257
         3       -532.607569679       -532.605376633       -532.601816686       -532.595898714       -532.587839506       -532.577079682       -532.568345006       -532.558028043       -532.547845858       -532.537573558       -532.644716349       -532.684433265       -532.692349090       -532.700564468          0.976746992          0.801672450          0.922805925          0.839395070          0.505983273          0.971117144          0.400699468          0.212467640          0.303797564          0.925087086          1.234841921          2.212735876          4.520797375
         4       -532.607569681       -532.605761775       -532.602295312       -532.596685617       -532.588975751       -532.578531928       -532.570707853       -532.559344159       -532.547850132       -532.538062443       -532.647206110       -532.686090103       -532.692311877       -532.700564469          0.968885390          0.813650059          0.906460105          0.831781745          0.532586494          0.919469814          0.428602463          0.232844397          0.291748791          0.958637558          1.270786227          2.304893494          4.399412223
         5       -532.607569681       -532.606178701       -532.602813134       -532.597484408       -532.590108659       -532.580005945       -532.572839891       -532.560579282       -532.547950839       -532.538361099       -532.649477242       -532.687344897       -532.692242959       -532.700564469          0.960536408          0.823723461          0.892000692          0.824080843          0.556085069          0.875272754          0.452983870          0.253547920          0.287240108          0.992093213          1.315687016          2.383035236          4.286046988
         6       -532.607569682       -532.606474241       -532.603208890       -532.598114497       -532.591033401       -532.581271759       -532.574547588       -532.561638530       -532.548073905       -532.538551614       -532.651585032       -532.688371162       -532.692201172       -532.700564470          0.954113244          0.831656075          0.880568816          0.817162450          0.575354633          0.839964171          0.470542487          0.269289641          0.289122764          1.018889655          1.361798407          2.442703973          4.186861337
         7       -532.607569682       -532.607279112       -532.604061864       -532.599053374       -532.592096135       -532.582478809       -532.575841235       -532.562755816       -532.549219064       -532.538692210       -532.652645909       -532.688806603       -532.692216552       -532.700564470          0.950290000          0.834729491          0.875700462          0.813946134          0.583162651          0.825455500          0.477424311          0.273791701          0.290686954          1.032173285          1.384728386          2.466053032          4.142243443
         8       -532.607569683       -532.605129351       -532.602864290       -532.599576296       -532.595029744       -532.588277508       -532.584567890       -532.564747572       -532.548095933       -532.538814355       -532.671089720       -532.691224174       -532.690267505       -532.700564470          0.902369604          0.908634014          0.776441925          0.746521847          0.786339681          0.519611189          0.675216039          0.478103578          0.311625565          1.325675257          1.936742335          2.995089702          3.304522882
         9       -532.607569683       -532.608401677       -532.606171365       -532.602937789       -532.598433252       -532.591783055       -532.587486017       -532.571040408       -532.549610094       -532.539268539       -532.672617235       -532.691550306       -532.690865780       -532.700564470          0.898786898          0.903309781          0.780394196          0.748929305          0.770151827          0.535444566          0.640084362          0.487756611          0.313170698          1.355965579          1.952964771          2.958794282          3.288901482
        10       -532.607569683       -532.608447373       -532.606312221       -532.603113791       -532.598658241       -532.592367080       -532.587538199       -532.571539529       -532.550369322       -532.539322138       -532.674552020       -532.691750015       -532.691420741       -532.700564470          0.897291610          0.893506223          0.786045672          0.751913195          0.746965402          0.557741527          0.615545331          0.490165771          0.318139546          1.406765791          1.980880822          2.902414748          3.261889700
        11       -532.607569683       -532.608575999       -532.606514570       -532.603348440       -532.598946384       -532.592901540       -532.587674758       -532.572132912       -532.551057566       -532.539359969       -532.676039496       -532.691895651       -532.691828673       -532.700564471          0.896045033          0.886542504          0.790025237          0.753353433          0.732745149          0.572865362          0.598631272          0.489867446          0.326450634          1.446991003          2.001085330          2.861436084          3.238678473
        12       -532.607569684       -532.608743930       -532.606721632       -532.603571287       -532.599201253       -532.593255743       -532.587818039       -532.572997077       -532.551444087       -532.539379438       -532.676758153       -532.691968973       -532.692016706       -532.700564471          0.895114937          0.883331517          0.791591502          0.753663832          0.727239357          0.579103961          0.591334139          0.488605021          0.331241496          1.466593098          2.009845608          2.842973105          3.226835062
        13       -532.607569684       -532.607671764       -532.606570881       -532.603873057       -532.600335817       -532.597272033       -532.587399674       -532.573615857       -532.561497115       -532.539348910       -532.690071497       -532.691855065       -532.695509655       -532.700564471          0.876617353          0.786604299          0.845745518          0.767921384          0.565772119          0.836127280          0.483233622          0.429960995          0.496349692          2.190863210          2.367330551          2.298427977          2.846535638
        14       -532.607569684       -532.609215567       -532.608123787       -532.605486399       -532.602029606       -532.598714473       -532.589297516       -532.577775987       -532.561698508       -532.539446287       -532.690589822       -532.692154384       -532.695615678       -532.700564471          0.873420887          0.791475614          0.840260314          0.763036918          0.584572753          0.814851813          0.481323809          0.439641382          0.501950041          2.193286320          2.347412159          2.317609583          2.831765168
        15       -532.607569684       -532.609192674       -532.608097571       -532.605527639       -532.602173635       -532.598578595       -532.589949211       -532.577685245       -532.561490185       -532.539529799       -532.691450202       -532.692710240       -532.695816947       -532.700564471          0.866036231          0.799130736          0.827943404          0.753831142          0.623304328          0.766432838          0.511345967          0.446997289          0.511177246          2.200511254          2.310773710          2.357231598          2.798971282
        16       -532.607569684       -532.609310691       -532.608214659       -532.605677257       -532.602365275       -532.598655942       -532.590345708       -532.578257934       -532.561386957       -532.539558047       -532.691737683       -532.692933199       -532.695909267       -532.700564471          0.862855206          0.802032350          0.822638629          0.751230394          0.637828825          0.748852417          0.519193950          0.454244050          0.511184099          2.205886918          2.300215113          2.371769491          2.783396643
        17       -532.607569684       -532.609354479       -532.608259070       -532.605776528       -532.602531502       -532.598659487       -532.590816321       -532.578595963       -532.561164397       -532.539589917       -532.692154678       -532.693294429       -532.696064145       -532.700564471          0.857376751          0.806655543          0.813661997          0.747360066          0.661197419          0.720307607          0.534438178          0.466209049          0.510644247          2.215203048          2.284811872          2.395129185          2.756582571
        18       -532.607569684       -532.609301825       -532.608216318       -532.605808632       -532.602640303       -532.598633811       -532.591241720       -532.578586794       -532.560844020       -532.539609225       -532.692585605       -532.693766848       -532.696291939       -532.700564471          0.850133769          0.811167274          0.802406158          0.745057969          0.685420940          0.690057543          0.552431919          0.484114897          0.506356531          2.228228205          2.276404619          2.418672095          2.718184699
        19       -532.607569684       -532.609422520       -532.608341004       -532.605949946       -532.602798501       -532.598766272       -532.591466762       -532.579082845       -532.560822520       -532.539613653       -532.692660560       -532.693867339       -532.696345992       -532.700564471          0.848734194          0.811572735          0.800482583          0.745129810          0.688733502          0.686009074          0.553650361          0.488315770          0.505620008          2.230522093          2.277435254          2.421491902          2.709577030
        20       -532.607569684       -532.609511946       -532.608528115       -532.606484474       -532.603646907       -532.599412708       -532.593250955       -532.579003981       -532.559918795       -532.539637841       -532.693792880       -532.695713873       -532.697412262       -532.700564471          0.816288865          0.821081966          0.755840853          0.748472997          0.762065585          0.597321674          0.620039720          0.573790773          0.493120381          2.290241198          2.317825621          2.490397362          2.512754316
        21       -532.607569684       -532.609650546       -532.608672090       -532.606624662       -532.603792520       -532.599569898       -532.593512784       -532.581077193       -532.560194866       -532.539643440       -532.693839211       -532.695751248       -532.697445798       -532.700564471          0.816451369          0.818897882          0.757561860          0.749266169          0.757030725          0.603652858          0.611521167          0.574712655          0.495829682          2.290881103          2.323511163          2.483267900          2.509190431
        22       -532.607569684       -532.609686969       -532.608768477       -532.606729042       -532.603915247       -532.600018668       -532.593517711       -532.580796468       -532.561236647       -532.539659012       -532.694063341       -532.696010231       -532.697671177       -532.700564471          0.816777440          0.804835068          0.768773077          0.754045861          0.723535183          0.643084986          0.598933774          0.564361967          0.514982936          2.297071145          2.361281791          2.435292998          2.482937019
        23       -532.607569684       -532.609696648       -532.608783675       -532.606748083       -532.603943964       -532.600060389       -532.593560092       -532.581450773       -532.561366644       -532.539660478       -532.694095653       -532.696049956       -532.697701374       -532.700564472          0.816291799          0.803903393          0.769241896          0.753597373          0.722766460          0.644407879          0.597423824          0.564537219          0.517174609          2.299460825          2.361678317          2.432319837          2.478954116
        24       -532.607569684       -532.609702350       -532.608796490       -532.606762010       -532.603966581       -532.600109009       -532.593571880       -532.581491052       -532.561521780       -532.539661486       -532.694126746       -532.696089348       -532.697732532       -532.700564472          0.816047929          0.802326905          0.770623527          0.752991771          0.720189867          0.647976218          0.596857710          0.562330380          0.520476944          2.301806038          2.361559390          2.426414146          2.475953047
        25       -532.607569684       -532.609710993       -532.608812205       -532.606783945       -532.604002403       -532.600159143       -532.593616676       -532.581546202       -532.561645995       -532.539662939       -532.694170226       -532.696145467       -532.697773806       -532.700564472          0.815249357          0.801209046          0.771020283          0.752207251          0.719660322          0.649296707          0.597749835          0.561655548          0.523268677          2.305334314          2.360608978          2.422537106          2.470439835
        26       -532.607569684       -532.609725213       -532.608838415       -532.606821071       -532.604060217       -532.600245838       -532.593687760       -532.581647814       -532.561845711       -532.539665121       -532.694236871       -532.696236696       -532.697841860       -532.700564472          0.813998212          0.799270037          0.771650720          0.751358699          0.718143087          0.652132371          0.598697461          0.561066757          0.527581597          2.310631022          2.360731702          2.415737935          2.461051795
        27       -532.607569684       -532.609737333       -532.608858051       -532.606852873       -532.604110809       -532.600301517       -532.593767162       -532.581739688       -532.561939599       -532.539666804       -532.694290579       -532.696311853       -532.697895781       -532.700564472          0.812588480          0.798559818          0.770952157          0.750573914          0.719363664          0.651527498          0.600740747          0.562393145          0.529736720          2.315051607          2.359460665          2.413236913          2.452707537
        28       -532.607569684       -532.609771875       -532.608908797       -532.606945753       -532.604253944       -532.600432332       -532.594024336       -532.582030682       -532.562030371       -532.539670999       -532.694416079       -532.696516181       -532.698039589       -532.700564472          0.808004534          0.798325790          0.766228283          0.749328779          0.726554956          0.644989657          0.607861298          0.571387391          0.531819431          2.325619354          2.356850888          2.411947606          2.427828869
        29       -532.607569684       -532.609778675       -532.608921451       -532.606963428       -532.604279466       -532.600476343       -532.594053198       -532.582084566       -532.562125858       -532.539672122       -532.694439638       -532.696557309       -532.698070455       -532.700564472          0.807507194          0.797269269          0.766576106          0.749281745          0.725067823          0.647131611          0.607876533          0.571253614          0.533711901          2.327100881          2.357897984          2.407836146          2.423604048
        30       -532.607569684       -532.609962542       -532.609269097       -532.607468044       -532.605020779       -532.601728363       -532.594975481       -532.582196112       -532.564847801       -532.539692714       -532.695061903       -532.697705174       -532.698946077       -532.700564472          0.794380122          0.765903880          0.776924226          0.747958205          0.684417896          0.714163016          0.616443938          0.572145719          0.594768602          2.377511151          2.389584138          2.285601659          2.288411029
        31       -532.607569684       -532.609984218       -532.609290141       -532.607496274       -532.605059279       -532.601735895       -532.595053084       -532.583761421       -532.564988720       -532.539695359       -532.695086803       -532.697730158       -532.698962277       -532.700564472          0.793296684          0.766819811          0.775182733          0.746935296          0.688172677          0.709310840          0.614373080          0.575772481          0.594499988          2.378437538          2.383945524          2.288294662          2.285810817
        32       -532.607569684       -532.610008991       -532.609311941       -532.607558433       -532.605168279       -532.601724540       -532.595338822       -532.583842310       -532.564744210       -532.539703296       -532.695168288       -532.697862640       -532.699049960       -532.700564472          0.787572292          0.771546715          0.766105922          0.742154255          0.707126953          0.685654951          0.628133144          0.586817339          0.592104598          2.382182020          2.356032832          2.300827275          2.271578620
        33       -532.607569684       -532.610015647       -532.609319711       -532.607571892       -532.605187191       -532.601736581       -532.595380332       -532.584033990       -532.564818204       -532.539704009       -532.695165852       -532.697884790       -532.699065203       -532.700564472          0.786928042          0.771757329          0.765149119          0.742042711          0.708175667          0.684300661          0.628495355          0.588686905          0.591978174          2.381329306          2.354422205          2.300562104          2.269410744
        34       -532.607569684       -532.610036839       -532.609346353       -532.607627612       -532.605266859       -532.601790372       -532.595537061       -532.584152660       -532.564709942       -532.539707053       -532.695146624       -532.697998604       -532.699144569       -532.700564472          0.783712301          0.772628261          0.760498928          0.741561303          0.713161222          0.678180004          0.632726477          0.598560245          0.591266699          2.376443943          2.346561148          2.298571130          2.258114003
        35       -532.607569684       -532.610042114       -532.609353117       -532.607638792       -532.605282018       -532.601804742       -532.595569155       -532.584289372       -532.564816576       -532.539707562       -532.695141277       -532.698018253       -532.699158355       -532.700564472          0.783285402          0.772533182          0.760027145          0.741523335          0.713441638          0.677790514          0.632950082          0.599396311          0.591771950          2.375264826          2.345659791          2.297684963          2.256259699
        36       -532.607569684       -532.610077787       -532.609403503       -532.607730364       -532.605408901       -532.601928867       -532.595780392       -532.584487517       -532.564751796       -532.539712142       -532.695083761       -532.698206867       -532.699291392       -532.700564472          0.779311942          0.771460775          0.755712290          0.741187115          0.716039363          0.675100883          0.637959937          0.609747732          0.595918773          2.363648804          2.336901107          2.288724742          2.238282311
        37       -532.607569684       -532.610082790       -532.609410155       -532.607740330       -532.605422288       -532.601944727       -532.595819999       -532.584640966       -532.565007493       -532.539712753       -532.695078498       -532.698224325       -532.699303778       -532.700564472          0.779022313          0.771205845          0.755562008          0.741121888          0.715955240          0.675141864          0.638150703          0.609691700          0.596672251          2.362777781          2.336065147          2.287611560          2.236748195
        38       -532.607569684       -532.610111288       -532.609452754       -532.607810875       -532.605519402       -532.602056091       -532.595960954       -532.584824431       -532.564998093       -532.539716221       -532.695029889       -532.698368340       -532.699406735       -532.700564472          0.776613576          0.769058279          0.754308676          0.740579625          0.715464111          0.676746179          0.641486427          0.615267387          0.600543238          2.355221178          2.328753316          2.278062198          2.223749662
        39       -532.607569684       -532.610115206       -532.609458196       -532.607819389       -532.605531207       -532.602070439       -532.595997033       -532.584894423       -532.565258461       -532.539716949       -532.695023887       -532.698385509       -532.699418888       -532.700564472          0.776332364          0.768838217          0.754163258          0.740499285          0.715427029          0.676803241          0.641773987          0.614938123          0.601623711          2.354066670          2.327802131          2.276966161          2.222344362
        40       -532.607569684       -532.610120315       -532.609465556       -532.607831786       -532.605548155       -532.602089461       -532.596024777       -532.584934632       -532.565302300       -532.539717653       -532.695014575       -532.698410539       -532.699436936       -532.700564472          0.775900035          0.768511448          0.753916979          0.740386240          0.715418614          0.676989991          0.642333184          0.615662976          0.602710237          2.352358857          2.326366124          2.275312288          2.220170839
        41       -532.607569684       -532.610135416       -532.609486736       -532.607869205       -532.605599930       -532.602142311       -532.596116291       -532.585063411       -532.565383304       -532.539719566       -532.694984817       -532.698484419       -532.699489706       -532.700564472          0.774492748          0.767976181          0.752433932          0.740208892          0.716313192          0.676401553          0.644298924          0.619223497          0.605193207          2.347168415          2.322429201          2.271298987          2.213203150
        42       -532.607569684       -532.610139435       -532.609492795       -532.607878785       -532.605613148       -532.602158236       -532.596136785       -532.585094469       -532.565416412       -532.539720213       -532.694977357       -532.698504026       -532.699504032       -532.700564472          0.774183809          0.767642437          0.752370466          0.740102322          0.716153457          0.676793962          0.644698710          0.619789961          0.605807735          2.346088566          2.321193153          2.269814922          2.211576014
        43       -532.607569684       -532.610337404       -532.609786740       -532.608352235       -532.606264418       -532.602953073       -532.597096817       -532.586324057       -532.565561469       -532.539744301       -532.694465513       -532.699368885       -532.700160875       -532.700564472          0.764571941          0.751179987          0.750732349          0.735851240          0.710680322          0.701096790          0.669002005          0.654430562          0.641523037          2.288633059          2.258762472          2.194523480          2.137761824
        44       -532.607569684       -532.610340905       -532.609790422       -532.608359787       -532.606275280       -532.602968466       -532.597207716       -532.586694381       -532.567281092       -532.539748835       -532.694457410       -532.699409180       -532.700186479       -532.700564472          0.764092385          0.751570030          0.750134966          0.735847073          0.711304822          0.699983982          0.667108653          0.649829508          0.645367816          2.286234913          2.257448807          2.194386144          2.137123436
        45       -532.607569684       -532.610347177       -532.609796906       -532.608374107       -532.606294428       -532.602978764       -532.597252457       -532.586751141       -532.567297808       -532.539750186       -532.694431855       -532.699445581       -532.700212509       -532.700564472          0.762937664          0.752466357          0.748749197          0.735848247          0.712891863          0.697831523          0.668260246          0.650611921          0.648595255          2.280960265          2.254117061          2.193986399          2.135593810
        46       -532.607569684       -532.610350676       -532.609800875       -532.608382128       -532.606304645       -532.602985387       -532.597273355       -532.586784648       -532.567316033       -532.539750702       -532.694416314       -532.699458518       -532.700223288       -532.700564472          0.762345413          0.752844461          0.748115220          0.735861248          0.713586275          0.697007617          0.668959379          0.651293037          0.649283611          2.278944941          2.252182122          2.193539393          2.134736644
        47       -532.607569684       -532.610355539       -532.609806430       -532.608393109       -532.606318424       -532.602994849       -532.597299865       -532.586812256       -532.567318813       -532.539751307       -532.694394490       -532.699475919       -532.700237925       -532.700564472          0.761600596          0.753269589          0.747369860          0.735879529          0.714392734          0.696101587          0.669889897          0.652666514          0.649928231          2.276428700          2.249627057          2.192776742          2.133589429
        48       -532.607569684       -532.610357449       -532.609808745       -532.608397445       -532.606323857       -532.602999206       -532.597310631       -532.586838813       -532.567339546       -532.539751690       -532.694385755       -532.699482721       -532.700243802       -532.700564472          0.761339817          0.753390610          0.747136056          0.735886863          0.714637491          0.695847421          0.670175342          0.653030874          0.650127542          2.275494825          2.248676045          2.192406954          2.133145526
        49       -532.607569684       -532.610601530       -532.610113071       -532.608975140       -532.607070018       -532.603644633       -532.598674218       -532.588419370       -532.567124063       -532.539808243       -532.692668615       -532.700360384       -532.700989602       -532.700564472          0.742354754          0.773807468          0.719271563          0.739644875          0.759224711          0.667259698          0.724887103          0.726304783          0.679632561          2.132125293          2.124720092          2.137325213          2.111187404
        50       -532.607569684       -532.610603101       -532.610117343       -532.608975937       -532.607068350       -532.603671703       -532.598727558       -532.588759114       -532.568182330       -532.539804314       -532.692683049       -532.700366586       -532.700993367       -532.700564472          0.743596240          0.771548891          0.722221566          0.739745276          0.755107050          0.672584448          0.721799323          0.723536522          0.679137355          2.134811020          2.126320154          2.135560286          2.111402063