    2936
 i =       0, E =     -576.4638312655
  C        18.9826200000       16.8047490000       15.9500650000
  C        14.0198170000       16.8490660000       16.1733170000
  C        15.2348860000       16.1516610000       16.1715220000
  C        15.2529630000       14.6634420000       16.5148530000
  C        13.9484570000       13.9350310000       16.1729530000
  C        12.7543950000       14.6218930000       16.1726040000
  C        12.7237870000       16.1148220000       16.5167310000
  C        11.4649970000       16.8486400000       16.0602300000
  C        13.9889690000       18.2555710000       15.9880860000
  C        12.7211110000       19.0019490000       16.0133990000
  C        11.4769740000       18.3012160000       16.0205760000
  C        10.3438640000       16.0999220000       15.8003910000
  C        10.3403280000       14.6870100000       15.8240390000
  C        11.4992810000       13.9348460000       15.9813560000
  C        11.4891330000       12.4740660000       15.9225770000
  C        12.7232970000       11.7629590000       15.9259470000
  C        13.9857710000       12.5032880000       15.9862500000
  C        16.5222150000       13.9408540000       16.0623700000
  C        16.4398590000       12.5933070000       15.8102090000
  C        15.2208360000       11.8773060000       15.8381680000
  C        17.7488780000       16.1123560000       15.9965530000
  C        17.7692070000       14.6832900000       16.0110570000
  C        16.4156590000       18.2259270000       15.7779010000
  C        15.2192850000       18.9128570000       15.7794880000
  C        16.4660590000       16.8319590000       15.9836500000
  C        12.6957010000       20.4170320000       15.9951820000
  C        11.5060120000       21.1316870000       15.9722540000
  C        10.2807100000       20.4424190000       15.9690350000
  C        10.2739020000       19.0576360000       15.9938270000
  C        10.2787850000       11.7368470000       15.8966610000
  C        10.2718470000       10.3523550000       15.8773950000
  C        11.4898930000        9.6494380000       15.8798550000
  C        12.6870810000       10.3463400000       15.9011750000
  C        19.0278850000       14.0254010000       15.9684680000
  C        20.2179990000       14.7305500000       15.9005560000
  C        20.1969110000       16.1362530000       15.8954160000
  H        11.4960220000        8.5635320000       15.8618990000
  H         9.3283880000        9.8144220000       15.8585210000
  H        13.6123420000        9.7819550000       15.9143590000
  H        21.1643300000       14.1983100000       15.8645130000
  H        21.1247410000       16.6991180000       15.8526970000
  H        18.9947550000       17.8880330000       15.9527000000
  H        13.6256480000       20.9730660000       16.0111180000
  H        11.5258490000       22.2176090000       15.9587480000
  H         9.3432710000       20.9908450000       15.9535190000
  H         9.3293500000       12.2589810000       15.9073470000
  H        19.0652030000       12.9423720000       16.0035860000
  H         9.3198770000       18.5428680000       16.0205380000
  H        12.6672440000       16.1464560000       17.6305050000
  H        15.3079920000       14.6317750000       17.6288700000
  H         9.4148730000       16.5933950000       15.5334220000
  H         9.3963700000       14.1912970000       15.6310210000
  H        17.3336930000       12.0370020000       15.5462030000
  H        15.2674150000       10.8112590000       15.6487870000
  H        17.3252260000       18.7842750000       15.5923290000
  H        15.2437520000       19.9802440000       15.5951610000
 Cu         0.0101450000       -0.0028280000       -5.6608810000
 Cu         2.5578710000       -0.0025910000       -5.6609060000
 Cu         5.1056750000       -0.0022430000       -5.6610060000
 Cu         7.6535480000       -0.0018350000       -5.6612040000
 Cu        10.2014840000       -0.0014630000       -5.6614420000
 Cu        12.7494630000       -0.0012500000       -5.6615990000
 Cu        15.2974510000       -0.0012620000       -5.6615930000
 Cu        17.8454150000       -0.0014900000       -5.6614400000
 Cu        20.3933220000       -0.0018530000       -5.6612140000
 Cu        22.9411430000       -0.0022370000       -5.6609950000
 Cu        25.4888710000       -0.0025600000       -5.6608400000
 Cu        28.0365090000       -0.0027850000       -5.6607720000
 Cu        30.5840780000       -0.0029160000       -5.6607750000
 Cu        33.1316150000       -0.0029820000       -5.6608160000
 Cu        35.6791500000       -0.0029970000       -5.6608590000
 Cu        38.2267270000       -0.0029540000       -5.6608780000
 Cu         1.2836340000        2.2034820000       -5.6613570000
 Cu         3.8313800000        2.2037150000       -5.6615410000
 Cu         6.3792730000        2.2040600000       -5.6617660000
 Cu         8.9272890000        2.2044410000       -5.6620120000
 Cu        11.4753860000        2.2047380000       -5.6622050000
 Cu        14.0235110000        2.2048400000       -5.6622550000
 Cu        16.5716190000        2.2047180000       -5.6621380000
 Cu        19.1196590000        2.2044330000       -5.6618920000
 Cu        21.6675830000        2.2040950000       -5.6615830000
 Cu        24.2153660000        2.2037940000       -5.6612890000
 Cu        26.7630040000        2.2035800000       -5.6610670000
 Cu        29.3105240000        2.2034570000       -5.6609500000
 Cu        31.8579640000        2.2033940000       -5.6609310000
 Cu        34.4053650000        2.2033590000       -5.6609840000
 Cu        36.9527820000        2.2033440000       -5.6610830000
 Cu        39.5002630000        2.2033690000       -5.6612100000
 Cu         0.0094880000        4.4097380000       -5.6616950000
 Cu         2.5570520000        4.4098090000       -5.6621350000
 Cu         5.1048380000        4.4100050000       -5.6626340000
 Cu         7.6528580000        4.4103120000       -5.6631080000
 Cu        10.2010750000        4.4106350000       -5.6634630000
 Cu        12.7493970000        4.4108410000       -5.6636100000
 Cu        15.2977250000        4.4108320000       -5.6634980000
 Cu        17.8459610000        4.4106420000       -5.6631430000
 Cu        20.3940330000        4.4103740000       -5.6626320000
 Cu        22.9419060000        4.4101220000       -5.6620850000
 Cu        25.4895740000        4.4099470000       -5.6615990000
 Cu        28.0370730000        4.4098600000       -5.6612500000
 Cu        30.5844500000        4.4098310000       -5.6610670000
 Cu        33.1317520000        4.4098200000       -5.6610310000
 Cu        35.6790240000        4.4097940000       -5.6611290000
 Cu        38.2263260000        4.4097540000       -5.6613530000
 Cu         1.2829510000        6.6161640000       -5.6623530000
 Cu         3.8305140000        6.6161860000       -5.6632410000
 Cu         6.3783750000        6.6163360000       -5.6642230000
 Cu         8.9265580000        6.6165830000       -5.6650920000
 Cu        11.4750090000        6.6168240000       -5.6656170000
 Cu        14.0235850000        6.6169180000       -5.6656340000
 Cu        16.5720830000        6.6168290000       -5.6651430000
 Cu        19.1203610000        6.6166420000       -5.6643080000
 Cu        21.6683730000        6.6164510000       -5.6633580000
 Cu        24.2161180000        6.6163240000       -5.6624660000
 Cu        26.7636390000        6.6162810000       -5.6617630000
 Cu        29.3109970000        6.6163020000       -5.6613000000
 Cu        31.8582500000        6.6163430000       -5.6610650000
 Cu        34.4054410000        6.6163580000       -5.6610410000
 Cu        36.9526180000        6.6163160000       -5.6612370000
 Cu        39.4998400000        6.6162340000       -5.6616690000
 Cu         0.0091910000        8.8227650000       -5.6620640000
 Cu         2.5565370000        8.8226590000       -5.6631930000
 Cu         5.1041510000        8.8226600000       -5.6646460000
 Cu         7.6521280000        8.8227840000       -5.6662140000
 Cu        10.2004870000        8.8229780000       -5.6675180000
 Cu        12.7491630000        8.8231150000       -5.6680870000
 Cu        15.2978990000        8.8231070000       -5.6677140000
 Cu        17.8464260000        8.8229810000       -5.6665980000
 Cu        20.3946250000        8.8228350000       -5.6651630000
 Cu        22.9424990000        8.8227420000       -5.6637490000
 Cu        25.4901030000        8.8227270000       -5.6625730000
 Cu        28.0374930000        8.8227890000       -5.6617150000
 Cu        30.5847490000        8.8228890000       -5.6611700000
 Cu        33.1319240000        8.8229660000       -5.6609260000
 Cu        35.6790660000        8.8229710000       -5.6609750000
 Cu        38.2262150000        8.8228930000       -5.6613390000
 Cu         1.2829310000       11.0293450000       -5.6625620000
 Cu         3.8303370000       11.0292520000       -5.6641860000
 Cu         6.3780460000       11.0292850000       -5.6662370000
 Cu         8.9261610000       11.0294320000       -5.6683440000
 Cu        11.4746890000       11.0295840000       -5.6698260000
 Cu        14.0234640000       11.0296170000       -5.6700860000
 Cu        16.5721760000       11.0295150000       -5.6691000000
 Cu        19.1205730000       11.0293660000       -5.6673460000
 Cu        21.6686210000       11.0292610000       -5.6654100000
 Cu        24.2163520000       11.0292400000       -5.6636950000
 Cu        26.7638260000       11.0293110000       -5.6623460000
 Cu        29.3111290000       11.0294450000       -5.6614060000
 Cu        31.8583430000       11.0295720000       -5.6608740000
 Cu        34.4055290000       11.0296310000       -5.6607240000
 Cu        36.9527130000       11.0296020000       -5.6609140000
 Cu        39.4999080000       11.0294890000       -5.6614960000
 Cu         0.0095370000       13.2360890000       -5.6617360000
 Cu         2.5568780000       13.2359860000       -5.6631340000
 Cu         5.1043830000       13.2359780000       -5.6652280000
 Cu         7.6522050000       13.2361160000       -5.6677820000
 Cu        10.2004430000       13.2363270000       -5.6701090000
 Cu        12.7490430000       13.2364370000       -5.6713060000
 Cu        15.2977480000       13.2363520000       -5.6709770000
 Cu        17.8462700000       13.2361540000       -5.6693950000
 Cu        20.3944700000       13.2359700000       -5.6671810000
 Cu        22.9423390000       13.2358820000       -5.6649770000
 Cu        25.4899200000       13.2359080000       -5.6631210000
 Cu        28.0373040000       13.2360180000       -5.6617580000
 Cu        30.5846020000       13.2361500000       -5.6609340000
 Cu        33.1318890000       13.2362420000       -5.6605790000
 Cu        35.6791800000       13.2362610000       -5.6605920000
 Cu        38.2264750000       13.2362030000       -5.6609440000
 Cu         1.2835640000       15.4427060000       -5.6620280000
 Cu         3.8310120000       15.4427170000       -5.6636880000
 Cu         6.3786310000       15.4428760000       -5.6661230000
 Cu         8.9265670000       15.4431850000       -5.6688710000
 Cu        11.4748600000       15.4434470000       -5.6709230000
 Cu        14.0233760000       15.4434640000       -5.6714890000
 Cu        16.5718590000       15.4432430000       -5.6705290000
 Cu        19.1201250000       15.4429430000       -5.6685050000
 Cu        21.6680910000       15.4427140000       -5.6660880000
 Cu        24.2157760000       15.4426180000       -5.6638610000
 Cu        26.7632710000       15.4426340000       -5.6621600000
 Cu        29.3106860000       15.4427090000       -5.6611040000
 Cu        31.8581010000       15.4427880000       -5.6605890000
 Cu        34.4055290000       15.4428340000       -5.6604450000
 Cu        36.9529610000       15.4428240000       -5.6606040000
 Cu        39.5003850000       15.4427690000       -5.6610760000
 Cu         0.0101820000       17.6493210000       -5.6612520000
 Cu         2.5576970000       17.6493640000       -5.6622950000
 Cu         5.1052510000       17.6495570000       -5.6641040000
 Cu         7.6529760000       17.6499500000       -5.6666350000
 Cu        10.2009740000       17.6504060000       -5.6691160000
 Cu        12.7492130000       17.6506290000       -5.6704840000
 Cu        15.2975280000       17.6505030000       -5.6703250000
 Cu        17.8457390000       17.6501520000       -5.6688690000
 Cu        20.3937340000       17.6497550000       -5.6666720000
 Cu        22.9414980000       17.6494600000       -5.6643770000
 Cu        25.4891030000       17.6493050000       -5.6625260000
 Cu        28.0366420000       17.6492670000       -5.6613400000
 Cu        30.5841810000       17.6492880000       -5.6607210000
 Cu        33.1317370000       17.6493240000       -5.6604760000
 Cu        35.6793100000       17.6493430000       -5.6604870000
 Cu        38.2268710000       17.6493340000       -5.6607260000
 Cu         1.2842490000       19.8558880000       -5.6613970000
 Cu         3.8318440000       19.8560850000       -5.6624590000
 Cu         6.3794790000       19.8565030000       -5.6642730000
 Cu         8.9272740000       19.8571030000       -5.6665750000
 Cu        11.4752670000       19.8575730000       -5.6683850000
 Cu        14.0233800000       19.8576600000       -5.6689450000
 Cu        16.5714700000       19.8573930000       -5.6682030000
 Cu        19.1194340000       19.8569110000       -5.6665430000
 Cu        21.6672380000       19.8564130000       -5.6645230000
 Cu        24.2149180000       19.8560450000       -5.6627470000
 Cu        26.7625520000       19.8558460000       -5.6615550000
 Cu        29.3101880000       19.8557760000       -5.6609010000
 Cu        31.8578430000       19.8557680000       -5.6606010000
 Cu        34.4055180000       19.8557830000       -5.6605360000
 Cu        36.9531970000       19.8558010000       -5.6606230000
 Cu        39.5008540000       19.8558220000       -5.6608740000
 Cu         0.0106130000       22.0623170000       -5.6609720000
 Cu         2.5582850000       22.0624940000       -5.6614560000
 Cu         5.1059270000       22.0628700000       -5.6624770000
 Cu         7.6536140000       22.0634940000       -5.6641370000
 Cu        10.2014410000       22.0641570000       -5.6659100000
 Cu        12.7493910000       22.0645070000       -5.6669170000
 Cu        15.2973680000       22.0644230000       -5.6668250000
 Cu        17.8452800000       22.0639950000       -5.6658030000
 Cu        20.3930910000       22.0634020000       -5.6642730000
 Cu        22.9408090000       22.0628470000       -5.6627570000
 Cu        25.4884930000       22.0624690000       -5.6616640000
 Cu        28.0361880000       22.0622770000       -5.6610470000
 Cu        30.5839060000       22.0622010000       -5.6607400000
 Cu        33.1316450000       22.0621870000       -5.6606340000
 Cu        35.6793940000       22.0622040000       -5.6606500000
 Cu        38.2271310000       22.0622390000       -5.6607480000
 Cu         1.2845620000       24.2688370000       -5.6609800000
 Cu         3.8322490000       24.2691420000       -5.6614180000
 Cu         6.3799180000       24.2696910000       -5.6623560000
 Cu         8.9276460000       24.2704140000       -5.6637100000
 Cu        11.4754830000       24.2709870000       -5.6648430000
 Cu        14.0233760000       24.2711410000       -5.6651960000
 Cu        16.5712490000       24.2708740000       -5.6647420000
 Cu        19.1190610000       24.2703150000       -5.6637330000
 Cu        21.6668050000       24.2696690000       -5.6625720000
 Cu        24.2145120000       24.2691380000       -5.6616440000
 Cu        26.7622260000       24.2688080000       -5.6610970000
 Cu        29.3099690000       24.2686420000       -5.6608230000
 Cu        31.8577380000       24.2685810000       -5.6607110000
 Cu        34.4055210000       24.2685790000       -5.6606900000
 Cu        36.9533000000       24.2686140000       -5.6607220000
 Cu        39.5010640000       24.2686840000       -5.6607970000
 Cu         0.0107360000       26.4751470000       -5.6607560000
 Cu         2.5584560000       26.4753880000       -5.6609050000
 Cu         5.1061430000       26.4758190000       -5.6613140000
 Cu         7.6538370000       26.4764750000       -5.6621350000
 Cu        10.2016030000       26.4771560000       -5.6631000000
 Cu        12.7494420000       26.4775390000       -5.6636790000
 Cu        15.2972920000       26.4774860000       -5.6636330000
 Cu        17.8451120000       26.4770620000       -5.6630750000
 Cu        20.3928780000       26.4764370000       -5.6622710000
 Cu        22.9406030000       26.4758220000       -5.6615300000
 Cu        25.4883190000       26.4753720000       -5.6610520000
 Cu        28.0360580000       26.4751090000       -5.6608170000
 Cu        30.5838280000       26.4749810000       -5.6607260000
 Cu        33.1316180000       26.4749430000       -5.6607020000
 Cu        35.6794170000       26.4749620000       -5.6607040000
 Cu        38.2272030000       26.4750230000       -5.6607170000
 Cu         1.2845970000       28.6816270000       -5.6606550000
 Cu         3.8323030000       28.6819570000       -5.6607990000
 Cu         6.3799940000       28.6824840000       -5.6612000000
 Cu         8.9277250000       28.6831420000       -5.6618690000
 Cu        11.4755260000       28.6836700000       -5.6624630000
 Cu        14.0233660000       28.6838380000       -5.6626710000
 Cu        16.5711960000       28.6836050000       -5.6624440000
 Cu        19.1189900000       28.6830900000       -5.6619420000
 Cu        21.6667370000       28.6824800000       -5.6613810000
 Cu        24.2144580000       28.6819530000       -5.6609640000
 Cu        26.7621860000       28.6815950000       -5.6607470000
 Cu        29.3099380000       28.6813930000       -5.6606750000
 Cu        31.8577180000       28.6813030000       -5.6606670000
 Cu        34.4055140000       28.6812920000       -5.6606710000
 Cu        36.9533080000       28.6813370000       -5.6606600000
 Cu        39.5010830000       28.6814400000       -5.6606420000
 Cu         0.0106990000       30.8878610000       -5.6605380000
 Cu         2.5584230000       30.8881190000       -5.6605530000
 Cu         5.1061260000       30.8885270000       -5.6607270000
 Cu         7.6538410000       30.8890860000       -5.6611200000
 Cu        10.2016140000       30.8896480000       -5.6616170000
 Cu        12.7494430000       30.8899820000       -5.6619340000
 Cu        15.2972880000       30.8899540000       -5.6619310000
 Cu        17.8451100000       30.8896030000       -5.6616540000
 Cu        20.3928870000       30.8890670000       -5.6612500000
 Cu        22.9406260000       30.8885230000       -5.6608890000
 Cu        25.4883480000       30.8880920000       -5.6606720000
 Cu        28.0360790000       30.8878140000       -5.6606000000
 Cu        30.5838360000       30.8876630000       -5.6606040000
 Cu        33.1316110000       30.8876110000       -5.6606220000
 Cu        35.6793940000       30.8876300000       -5.6606150000
 Cu        38.2271730000       30.8877110000       -5.6605770000
 Cu         1.2845080000       33.0942840000       -5.6604660000
 Cu         3.8322270000       33.0946080000       -5.6605160000
 Cu         6.3799460000       33.0950660000       -5.6607350000
 Cu         8.9277020000       33.0955890000       -5.6610970000
 Cu        11.4755180000       33.0960040000       -5.6614360000
 Cu        14.0233730000       33.0961460000       -5.6615660000
 Cu        16.5712240000       33.0959740000       -5.6614560000
 Cu        19.1190400000       33.0955580000       -5.6611790000
 Cu        21.6668070000       33.0950550000       -5.6608710000
 Cu        24.2145400000       33.0945850000       -5.6606450000
 Cu        26.7622590000       33.0942420000       -5.6605520000
 Cu        29.3099860000       33.0940280000       -5.6605520000
 Cu        31.8577290000       33.0939220000       -5.6605830000
 Cu        34.4054830000       33.0939030000       -5.6605940000
 Cu        36.9532470000       33.0939560000       -5.6605610000
 Cu        39.5009990000       33.0940780000       -5.6605020000
 Cu         0.0105490000       35.3004420000       -5.6604900000
 Cu         2.5582810000       35.3007050000       -5.6604810000
 Cu         5.1060150000       35.3010830000       -5.6605870000
 Cu         7.6537750000       35.3015440000       -5.6608390000
 Cu        10.2015860000       35.3019830000       -5.6611470000
 Cu        12.7494480000       35.3022420000       -5.6613560000
 Cu        15.2973290000       35.3022230000       -5.6613670000
 Cu        17.8451880000       35.3019520000       -5.6611960000
 Cu        20.3930000000       35.3015210000       -5.6609370000
 Cu        22.9407630000       35.3010640000       -5.6607030000
 Cu        25.4884870000       35.3006740000       -5.6605730000
 Cu        28.0361920000       35.3004000000       -5.6605470000
 Cu        30.5838910000       35.3002400000       -5.6605790000
 Cu        33.1315960000       35.3001750000       -5.6606120000
 Cu        35.6793140000       35.3001860000       -5.6606040000
 Cu        38.2270430000       35.3002740000       -5.6605520000
 Cu         1.2842580000       37.5067940000       -5.6605970000
 Cu         3.8320100000       37.5071110000       -5.6606320000
 Cu         6.3797910000       37.5075150000       -5.6607900000
 Cu         8.9276200000       37.5079460000       -5.6610490000
 Cu        11.4755020000       37.5082740000       -5.6612920000
 Cu        14.0234170000       37.5083850000       -5.6613930000
 Cu        16.5713290000       37.5082510000       -5.6613130000
 Cu        19.1192020000       37.5079190000       -5.6611040000
 Cu        21.6670190000       37.5074960000       -5.6608700000
 Cu        24.2147770000       37.5070950000       -5.6606980000
 Cu        26.7624780000       37.5067830000       -5.6606240000
 Cu        29.3101390000       37.5065770000       -5.6606300000
 Cu        31.8577770000       37.5064660000       -5.6606710000
 Cu        34.4054150000       37.5064320000       -5.6606990000
 Cu        36.9530720000       37.5064700000       -5.6606850000
 Cu        39.5007630000       37.5065840000       -5.6606360000
 Cu         1.2839670000        0.7328760000       -3.6013400000
 Cu         3.8317510000        0.7331750000       -3.6014360000
 Cu         6.3796190000        0.7335750000       -3.6016120000
 Cu         8.9275430000        0.7339920000       -3.6018550000
 Cu        11.4754960000        0.7342980000       -3.6020690000
 Cu        14.0234600000        0.7343880000       -3.6021430000
 Cu        16.5714190000        0.7342390000       -3.6020450000
 Cu        19.1193500000        0.7339120000       -3.6018250000
 Cu        21.6672230000        0.7335180000       -3.6015660000
 Cu        24.2150140000        0.7331590000       -3.6013380000
 Cu        26.7627070000        0.7328970000       -3.6011870000
 Cu        29.3103140000        0.7327380000       -3.6011250000
 Cu        31.8578610000        0.7326560000       -3.6011360000
 Cu        34.4053800000        0.7326220000       -3.6011860000
 Cu        36.9529150000        0.7326300000       -3.6012410000
 Cu        39.5005070000        0.7327010000       -3.6012890000
 Cu         0.0098230000        2.9390750000       -3.6017200000
 Cu         2.5574890000        2.9392550000       -3.6019750000
 Cu         5.1053140000        2.9395830000       -3.6022750000
 Cu         7.6532850000        2.9400100000       -3.6025950000
 Cu        10.2013530000        2.9404120000       -3.6028720000
 Cu        12.7494620000        2.9406380000       -3.6030130000
 Cu        15.2975660000        2.9405990000       -3.6029520000
 Cu        17.8456290000        2.9403320000       -3.6027050000
 Cu        20.3936020000        2.9399570000       -3.6023420000
 Cu        22.9414520000        2.9395950000       -3.6019500000
 Cu        25.4891660000        2.9393260000       -3.6016060000
 Cu        28.0367530000        2.9391650000       -3.6013720000
 Cu        30.5842460000        2.9390880000       -3.6012650000
 Cu        33.1316760000        2.9390510000       -3.6012680000
 Cu        35.6790850000        2.9390260000       -3.6013570000
 Cu        38.2265280000        2.9390210000       -3.6015100000
 Cu         1.2833350000        5.1454630000       -3.6023750000
 Cu         3.8309890000        5.1456270000       -3.6030120000
 Cu         6.3788710000        5.1459560000       -3.6036960000
 Cu         8.9269780000        5.1463760000       -3.6042920000
 Cu        11.4752450000        5.1467270000       -3.6046470000
 Cu        14.0235620000        5.1468380000       -3.6046570000
 Cu        16.5718250000        5.1466740000       -3.6043140000
 Cu        19.1199490000        5.1463520000       -3.6037180000
 Cu        21.6678940000        5.1460110000       -3.6030160000
 Cu        24.2156470000        5.1457510000       -3.6023440000
 Cu        26.7632410000        5.1456020000       -3.6018160000
 Cu        29.3107090000        5.1455490000       -3.6014800000
 Cu        31.8580890000        5.1455400000       -3.6013320000
 Cu        34.4054180000        5.1455300000       -3.6013480000
 Cu        36.9527360000        5.1454910000       -3.6015260000
 Cu        39.5000950000        5.1454480000       -3.6018670000
 Cu         0.0094870000        7.3519050000       -3.6023250000
 Cu         2.5569390000        7.3518770000       -3.6032740000
 Cu         5.1046170000        7.3520200000       -3.6044630000
 Cu         7.6525830000        7.3523360000       -3.6056990000
 Cu        10.2008370000        7.3527080000       -3.6066770000
 Cu        12.7492940000        7.3529470000       -3.6070630000
 Cu        15.2977740000        7.3529250000       -3.6067330000
 Cu        17.8460960000        7.3526980000       -3.6058340000
 Cu        20.3941860000        7.3524080000       -3.6046730000
 Cu        22.9420300000        7.3521700000       -3.6035200000
 Cu        25.4896740000        7.3520380000       -3.6025560000
 Cu        28.0371610000        7.3520140000       -3.6018660000
 Cu        30.5845360000        7.3520500000       -3.6014530000
 Cu        33.1318400000        7.3520900000       -3.6012860000
 Cu        35.6791110000        7.3520800000       -3.6013610000
 Cu        38.2263870000        7.3520030000       -3.6016960000
 Cu         1.2832500000        9.5583800000       -3.6029180000
 Cu         3.8307460000        9.5583330000       -3.6044060000
 Cu         6.3784930000        9.5584840000       -3.6062460000
 Cu         8.9265570000        9.5587890000       -3.6080750000
 Cu        11.4749180000        9.5590710000       -3.6093170000
 Cu        14.0234600000        9.5591600000       -3.6094600000
 Cu        16.5719360000        9.5590390000       -3.6085070000
 Cu        19.1201900000        9.5588080000       -3.6069120000
 Cu        21.6681790000        9.5585930000       -3.6051930000
 Cu        24.2159350000        9.5584720000       -3.6036840000
 Cu        26.7634940000        9.5584690000       -3.6025120000
 Cu        29.3109070000        9.5585540000       -3.6017160000
 Cu        31.8582320000        9.5586580000       -3.6012680000
 Cu        34.4055250000        9.5587060000       -3.6011490000
 Cu        36.9528120000        9.5586610000       -3.6013500000
 Cu        39.5001140000        9.5585280000       -3.6019150000
 Cu         0.0097730000       11.7650470000       -3.6022220000
 Cu         2.5572170000       11.7648820000       -3.6036390000
 Cu         5.1048020000       11.7648710000       -3.6056940000
 Cu         7.6526350000       11.7650750000       -3.6081500000
 Cu        10.2007600000       11.7653690000       -3.6103510000
 Cu        12.7491280000       11.7655320000       -3.6114440000
 Cu        15.2975840000       11.7654820000       -3.6110120000
 Cu        17.8459190000       11.7652840000       -3.6093760000
 Cu        20.3940390000       11.7650630000       -3.6072280000
 Cu        22.9419350000       11.7649300000       -3.6051460000
 Cu        25.4896010000       11.7649280000       -3.6034170000
 Cu        28.0370900000       11.7650420000       -3.6021470000
 Cu        30.5844860000       11.7651990000       -3.6013550000
 Cu        33.1318590000       11.7653060000       -3.6010050000
 Cu        35.6792340000       11.7653190000       -3.6010220000
 Cu        38.2266120000       11.7652260000       -3.6013950000
 Cu         1.2838390000       13.9715640000       -3.6026040000
 Cu         3.8313840000       13.9714490000       -3.6044080000
 Cu         6.3790610000       13.9715480000       -3.6069530000
 Cu         8.9269480000       13.9718480000       -3.6097690000
 Cu        11.4750500000       13.9721160000       -3.6118490000
 Cu        14.0233080000       13.9721420000       -3.6123560000
 Cu        16.5715730000       13.9719480000       -3.6112650000
 Cu        19.1197150000       13.9716790000       -3.6091280000
 Cu        21.6676850000       13.9714860000       -3.6066720000
 Cu        24.2154480000       13.9714390000       -3.6044300000
 Cu        26.7630350000       13.9715390000       -3.6026870000
 Cu        29.3105390000       13.9717050000       -3.6015590000
 Cu        31.8580360000       13.9718460000       -3.6009910000
 Cu        34.4055400000       13.9719090000       -3.6008340000
 Cu        36.9530490000       13.9718740000       -3.6010080000
 Cu        39.5005610000       13.9717470000       -3.6015410000
 Cu         0.0104080000       16.1782340000       -3.6017560000
 Cu         2.5580340000       16.1781100000       -3.6029870000
 Cu         5.1056760000       16.1781330000       -3.6050710000
 Cu         7.6534090000       16.1784130000       -3.6078730000