
  **** **** ******  **  PROGRAM STARTED AT               2011-02-01 12:14:41.994
 ***** ** ***  *** **   PROGRAM STARTED ON                               node047
 **    ****   ******    PROGRAM STARTED BY                                      
 ***** **    ** ** **   PROGRAM PROCESS ID                                 25807
  **** **  *******  **  PROGRAM STARTED IN  /mnt/workspc/pic127/CP2KTUTORIAL/EX2

 CP2K| version string:                 CP2K version 2.2.86 (Development Version)
 CP2K| is freely available from                          http://cp2k.berlios.de/
 CP2K| Program compiled at                          Wed Dec 29 17:45:42 CET 2010
 CP2K| Program compiled on                                               node082
 CP2K| Program compiled for                                   Linux-x86-64-intel
 CP2K| Last CVS entry                                                           
 CP2K| Input file name                                                   neb.inp
 
 GLOBAL| Force Environment number                                              1
 GLOBAL| Basis set file name                                           BASIS_SET
 GLOBAL| Geminal file name                                         BASIS_GEMINAL
 GLOBAL| Potential file name                                           POTENTIAL
 GLOBAL| MM Potential file name                                     MM_POTENTIAL
 GLOBAL| Coordinate file name                                            ./s.xyz
 GLOBAL| Force Environment number                                              2
 GLOBAL| Basis set file name                                           BASIS_SET
 GLOBAL| Geminal file name                                         BASIS_GEMINAL
 GLOBAL| Potential file name                                           POTENTIAL
 GLOBAL| MM Potential file name                                     MM_POTENTIAL
 GLOBAL| Coordinate file name                                            ./s.xyz
 GLOBAL| Force Environment number                                              3
 GLOBAL| Basis set file name                                           BASIS_SET
 GLOBAL| Geminal file name                                         BASIS_GEMINAL
 GLOBAL| Potential file name                                           POTENTIAL
 GLOBAL| MM Potential file name                                     MM_POTENTIAL
 GLOBAL| Coordinate file name                                            ./f.xyz
 GLOBAL| Method name                                                        CP2K
 GLOBAL| Project name                                                        NEB
 GLOBAL| Preferred FFT library                                             FFTW3
 GLOBAL| Run type                                                           BAND
 GLOBAL| All-to-all communication in single precision                          F
 GLOBAL| FFTs using library dependent lengths                                  F
 GLOBAL| Global print level                                                  LOW
 GLOBAL| Total number of message passing processes                             4
 GLOBAL| Number of threads for this process                                    1
 GLOBAL| This output is from process                                           0

 MEMORY| system memory details [Kb]
 MEMORY|                        rank 0           min           max       average
 MEMORY| MemTotal                    0             0             0             0
 MEMORY| MemFree                     0             0             0             0
 MEMORY| Buffers                     0             0             0             0
 MEMORY| Cached                      0             0             0             0
 MEMORY| Slab                        0             0             0             0
 MEMORY| SReclaimable                0             0             0             0
 MEMORY| MemLikelyFree               0             0             0             0

 MIXED_ENV| Number of created MPI groups:                                      2
 MIXED_ENV| Task to group correspondence:
  (   0 :    0)  (   1 :    0)  (   2 :    1)  (   3 :    1)
          ----------------------------------------------------------------------
 COLVARS| COLVAR INPUT INDEX:        1
 COLVARS| BOND          >>> ATOMS:                                    49      50
          ----------------------------------------------------------------------
 GENERATE|  Preliminary Number of Bends generated:                             0
 GENERATE|  Number of Bends generated:                                         0
 GENERATE|  Number of UB generated:                                            0
 GENERATE|  Preliminary Number of Torsions generated:                          0
 GENERATE|  Number of Torsions generated:                                      0
 GENERATE|  Number of Impropers generated:                                     0
 GENERATE|  Number of 1-4 interactions generated:                              0
 NEB| Replica_env Setup. START
 REPLICA| layout of the replica grid, number of groups                         2
 REPLICA| layout of the replica grid, size of each group                       2
 REPLICA| MPI process to grid (group,rank) correspondence:
  (   0 :    0,   0)  (   1 :    0,   1)  (   2 :    1,   0)  (   3 :    1,   1)
 NEB| Replica_env Setup. END

 *******************************************************************************
 *******************************************************************************
 **                                                                           **
 **  ########     ###    ##    ## ########    Nudged Elastic Band Method      **
 **  ##     ##   ## ##   ###   ## ##     ##   String Method                   **
 **  ##     ##  ##   ##  ####  ## ##     ##                                   **
 **  ########  ##     ## ## ## ## ##     ##   Number of Images :           14 **
 **  ##     ## ######### ##  #### ##     ##   Number of Replicas:           2 **
 **  ##     ## ##     ## ##   ### ##     ##   Number of Procs/Rep:          2 **
 **  ########  ##     ## ##    ## ########                                    **
 **                                           T. Laino  2009-2010             **
 *******************************************************************************
 *******************************************************************************

 NEB| Building initial set of coordinates. START

 NEB|***************************************************************************
 NEB| Geometry for Replica Nr. 1 in Angstrom
 NEB|          C        18.978979874   16.803775306   15.950210018
 NEB|          C        14.014185297   16.850199744   16.173764900
 NEB|          C        15.238708423   16.147260031   16.171880467
 NEB|          C        15.252887679   14.664331014   16.509373530
 NEB|          C        13.944062383   13.949240518   16.175138589
 NEB|          C        12.769011382   14.625191026   16.174882200
 NEB|          C        12.725575899   16.115312704   16.511117790
 NEB|          C        11.461701124   16.837199051   16.059557381
 NEB|          C        13.991014326   18.252647274   15.988232161
 NEB|          C        12.715578684   19.001592054   16.012217089
 NEB|          C        11.480199456   18.309720152   16.020335768
 NEB|          C        10.351003594   16.114293351   15.801941207
 NEB|          C        10.351183321   14.670613204   15.823895104
 NEB|          C        11.483090469   13.942582877   15.978247838
 NEB|          C        11.490957318   12.468241665   15.923282741
 NEB|          C        12.718002777   11.761601030   15.926477342
 NEB|          C        14.000519846   12.492724030   15.983289770
 NEB|          C        16.513338769   13.932363429   16.061806535
 NEB|          C        16.448260001   12.606647403   15.811860676
 NEB|          C        15.200453766   11.879064459   15.837768384
 NEB|          C        17.751219587   16.106973431   15.995405787
 NEB|          C        17.775062202   14.690973274   16.010720431
 NEB|          C        16.418751818   18.221224147   15.777866486
 NEB|          C        15.213411232   18.913389773   15.779523572
 NEB|          C        16.462370862   16.832157387   15.983762038
 NEB|          C        12.696741936   20.413719214   15.995689776
 NEB|          C        11.503498099   21.130243254   15.972259468
 NEB|          C        10.283144721   20.444800321   15.969001487
 NEB|          C        10.277568034   19.053045864   15.994820244
 NEB|          C        10.281565080   11.740288069   15.897188057
 NEB|          C        10.273998759   10.349778617   15.877243232
 NEB|          C        11.486882278    9.650065394   15.879625571
 NEB|          C        12.688670685   10.350293585   15.901725299
 NEB|          C        19.022251427   14.026385537   15.969034302
 NEB|          C        20.219073851   14.733739148   15.901076868
 NEB|          C        20.197214733   16.133172176   15.895726408
 NEB|          H        11.495582927    8.562929047   15.861865513
 NEB|          H         9.328116441    9.813775445   15.858474908
 NEB|          H        13.614377328    9.781853399   15.914084366
 NEB|          H        21.164976262   14.198293126   15.864260954
 NEB|          H        21.125436039   16.699088051   15.852533032
 NEB|          H        18.993814337   17.890083747   15.952581641
 NEB|          H        13.627824562   20.973286400   16.010779706
 NEB|          H        11.525477083   22.218140550   15.958606240
 NEB|          H         9.342956074   20.991436695   15.953316566
 NEB|          H         9.328137257   12.260686407   15.907051932
 NEB|          H        19.064522205   12.940630840   16.003197029
 NEB|          H         9.318748801   18.541378231   16.020027884
 NEB|          H        12.667095227   16.146308086   17.635480584
 NEB|          H        15.307969668   14.631576213   17.633864312
 NEB|          H         9.413108488   16.594161068   15.533102310
 NEB|          H         9.394504781   14.190150282   15.631527211
 NEB|          H        17.335226336   12.035917458   15.545901700
 NEB|          H        15.267334447   10.809216303   15.649400604
 NEB|          H        17.327695690   18.784617558   15.592478760
 NEB|          H        15.242766959   19.982509877   15.595315365
 NEB|         Cu         0.010144839   -0.002828074   -5.660880872
 NEB|         Cu         2.557870841   -0.002591089   -5.660906013
 NEB|         Cu         5.105674829   -0.002243165   -5.661006074
 NEB|         Cu         7.653547857   -0.001835051   -5.661204054
 NEB|         Cu        10.201483911   -0.001462957   -5.661441998
 NEB|         Cu        12.749462954   -0.001249869   -5.661598950
 NEB|         Cu        15.297451079   -0.001261993   -5.661592990
 NEB|         Cu        17.845415152   -0.001490041   -5.661440035
 NEB|         Cu        20.393322098   -0.001853009   -5.661213989
 NEB|         Cu        22.941143175   -0.002237069   -5.660994997
 NEB|         Cu        25.488871074   -0.002560092   -5.660840080
 NEB|         Cu        28.036509042   -0.002785116   -5.660771967
 NEB|         Cu        30.584078096   -0.002916201   -5.660774905
 NEB|         Cu        33.131614834   -0.002982216   -5.660815878
 NEB|         Cu        35.679149953   -0.002997117   -5.660858815
 NEB|         Cu        38.226726903   -0.002954133   -5.660877884
 NEB|         Cu         1.283633888    2.203481892   -5.661356840
 NEB|         Cu         3.831379811    2.203714895   -5.661540920
 NEB|         Cu         6.379272817    2.204059904   -5.661766119
 NEB|         Cu         8.927288839    2.204441040   -5.662012365
 NEB|         Cu        11.475385910    2.204738051   -5.662205497
 NEB|         Cu        14.023511091    2.204840050   -5.662255574
 NEB|         Cu        16.571619182    2.204718004   -5.662138396
 NEB|         Cu        19.119659191    2.204432996   -5.661892159
 NEB|         Cu        21.667583167    2.204094917   -5.661583107
 NEB|         Cu        24.215366088    2.203793854   -5.661289017
 NEB|         Cu        26.763004120    2.203579923   -5.661067016
 NEB|         Cu        29.310524040    2.203456920   -5.660949879
 NEB|         Cu        31.857963919    2.203393875   -5.660930780
 NEB|         Cu        34.405364974    2.203358903   -5.660983745
 NEB|         Cu        36.952781816    2.203343900   -5.661082655
 NEB|         Cu        39.500262917    2.203368887   -5.661209721
 NEB|         Cu         0.009487875    4.409737924   -5.661694677
 NEB|         Cu         2.557051919    4.409808936   -5.662134759
 NEB|         Cu         5.104837980    4.410005075   -5.662633829
 NEB|         Cu         7.652858083    4.410312107   -5.663108230
 NEB|         Cu        10.201074979    4.410635138   -5.663463721
 NEB|         Cu        12.749396994    4.410841036   -5.663610913
 NEB|         Cu        15.297724944    4.410832070   -5.663498624
 NEB|         Cu        17.845961082    4.410642049   -5.663143361
 NEB|         Cu        20.394033138    4.410374015   -5.662632230
 NEB|         Cu        22.941906028    4.410122039   -5.662085022
 NEB|         Cu        25.489574108    4.409947040   -5.661598899
 NEB|         Cu        28.037073074    4.409859915   -5.661249907
 NEB|         Cu        30.584449928    4.409830909   -5.661066768
 NEB|         Cu        33.131751896    4.409819874   -5.661030717
 NEB|         Cu        35.679023923    4.409793889   -5.661128675
 NEB|         Cu        38.226325794    4.409753935   -5.661352642
 NEB|         Cu         1.282951000    6.616163921   -5.662352639
 NEB|         Cu         3.830514090    6.616186029   -5.663240851
 NEB|         Cu         6.378375241    6.616336166   -5.664222982
 NEB|         Cu         8.926558240    6.616583188   -5.665092369
 NEB|         Cu        11.475009052    6.616824090   -5.665617565
 NEB|         Cu        14.023584976    6.616918073   -5.665634480
 NEB|         Cu        16.572082916    6.616829117   -5.665143378
 NEB|         Cu        19.120360991    6.616642041   -5.664308241
 NEB|         Cu        21.668372894    6.616451073   -5.663357954
 NEB|         Cu        24.216117868    6.616324115   -5.662465837
 NEB|         Cu        26.763638954    6.616280929   -5.661762827
 NEB|         Cu        29.310996989    6.616301912   -5.661299733
 NEB|         Cu        31.858249939    6.616342919   -5.661064666
 NEB|         Cu        34.405440872    6.616357848   -5.661040670
 NEB|         Cu        36.952617854    6.616315861   -5.661236639
 NEB|         Cu        39.499839854    6.616233858   -5.661668662
 NEB|         Cu         0.009190984    8.822764941   -5.662063742
 NEB|         Cu         2.556537175    8.822659061   -5.663192711
 NEB|         Cu         5.104151262    8.822660105   -5.664646022
 NEB|         Cu         7.652128259    8.822784199   -5.666214176
 NEB|         Cu        10.200487266    8.822978167   -5.667517934
 NEB|         Cu        12.749163137    8.823115161   -5.668086591
 NEB|         Cu        15.297899031    8.823107101   -5.667713794
 NEB|         Cu        17.846425787    8.822981075   -5.666597973
 NEB|         Cu        20.394624703    8.822835151   -5.665162906
 NEB|         Cu        22.942498876    8.822742071   -5.663748952
 NEB|         Cu        25.490102803    8.822727074   -5.662572874
 NEB|         Cu        28.037492981    8.822789109   -5.661714692
 NEB|         Cu        30.584748939    8.822889007   -5.661169725
 NEB|         Cu        33.131923865    8.822965925   -5.660925646
 NEB|         Cu        35.679065892    8.822970913   -5.660974688
 NEB|         Cu        38.226214763    8.822892882   -5.661338729
 NEB|         Cu         1.282931098   11.029344839   -5.662561960
 NEB|         Cu         3.830337262   11.029252031   -5.664185879
 NEB|         Cu         6.378046304   11.029285134   -5.666237252
 NEB|         Cu         8.926161203   11.029432203   -5.668344087
 NEB|         Cu        11.474689096   11.029584200   -5.669825538
 NEB|         Cu        14.023464115   11.029617229   -5.670085383
 NEB|         Cu        16.572175864   11.029515170   -5.669099644
 NEB|         Cu        19.120572853   11.029366102   -5.667345819
 NEB|         Cu        21.668620872   11.029261101   -5.665410103
 NEB|         Cu        24.216351833   11.029240115   -5.663694911
 NEB|         Cu        26.763825774   11.029311142   -5.662345668
 NEB|         Cu        29.311128804   11.029444939   -5.661405694
 NEB|         Cu        31.858342916   11.029571853   -5.660873759
 NEB|         Cu        34.405528982   11.029630906   -5.660723592
 NEB|         Cu        36.952712918   11.029601841   -5.660913734
 NEB|         Cu        39.499907878   11.029488838   -5.661495801
 NEB|         Cu         0.009537079   13.236088857   -5.661735920
 NEB|         Cu         2.556878100   13.235985845   -5.663134232
 NEB|         Cu         5.104383272   13.235978140   -5.665228173
 NEB|         Cu         7.652205390   13.236116214   -5.667782099
 NEB|         Cu        10.200443260   13.236327066   -5.670108576
 NEB|         Cu        12.749042968   13.236437083   -5.671305350
 NEB|         Cu        15.297747917   13.236352028   -5.670976246
 NEB|         Cu        17.846269931   13.236154023   -5.669394203
 NEB|         Cu        20.394469913   13.235970094   -5.667180687
 NEB|         Cu        22.942338666   13.235882139   -5.664976756
 NEB|         Cu        25.489919691   13.235908083   -5.663120631
 NEB|         Cu        28.037303730   13.236018050   -5.661757802
 NEB|         Cu        30.584602007   13.236150013   -5.660933840
 NEB|         Cu        33.131889035   13.236241928   -5.660578765
 NEB|         Cu        35.679180092   13.236260893   -5.660591635
 NEB|         Cu        38.226474888   13.236202873   -5.660943709
 NEB|         Cu         1.283564109   15.442705909   -5.662027867
 NEB|         Cu         3.831012189   15.442716913   -5.663688418
 NEB|         Cu         6.378631220   15.442876098   -5.666123352
 NEB|         Cu         8.926567239   15.443185031   -5.668870709
 NEB|         Cu        11.474860089   15.443446965   -5.670922178
 NEB|         Cu        14.023375759   15.443464139   -5.671488246
 NEB|         Cu        16.571858911   15.443243123   -5.670528171
 NEB|         Cu        19.120124922   15.442943090   -5.668504348
 NEB|         Cu        21.668090846   15.442714063   -5.666087613
 NEB|         Cu        24.215775793   15.442618044   -5.663860796
 NEB|         Cu        26.763270803   15.442633965   -5.662159953
 NEB|         Cu        29.310685907   15.442708979   -5.661103916
 NEB|         Cu        31.858100904   15.442787940   -5.660588815
 NEB|         Cu        34.405529053   15.442833894   -5.660444849
 NEB|         Cu        36.952961129   15.442823870   -5.660603667
 NEB|         Cu        39.500385078   15.442768922   -5.661075697
 NEB|         Cu         0.010182130   17.649320981   -5.661251764
 NEB|         Cu         2.557697244   17.649364059   -5.662294762
 NEB|         Cu         5.105251285   17.649557202   -5.664104293
 NEB|         Cu         7.652976065   17.649950133   -5.666634904
 NEB|         Cu        10.200974067   17.650405863   -5.669115121
 NEB|         Cu        12.749213021   17.650628940   -5.670483217
 NEB|         Cu        15.297527800   17.650503118   -5.670324554
 NEB|         Cu        17.845738841   17.650152134   -5.668868491
 NEB|         Cu        20.393733922   17.649755085   -5.666671411
 NEB|         Cu        22.941497928   17.649460009   -5.664376733
 NEB|         Cu        25.489102773   17.649305008   -5.662525890
 NEB|         Cu        28.036641799   17.649266939   -5.661339944
 NEB|         Cu        30.584180866   17.649287950   -5.660720980
 NEB|         Cu        33.131737121   17.649323938   -5.660475966
 NEB|         Cu        35.679309954   17.649342901   -5.660486881
 NEB|         Cu        38.226871148   17.649333893   -5.660725723
 NEB|         Cu         1.284249117   19.855888033   -5.661396815
 NEB|         Cu         3.831844198   19.856085052   -5.662458755
 NEB|         Cu         6.379479208   19.856503256   -5.664273030
 NEB|         Cu         8.927273979   19.857103080   -5.666574260
 NEB|         Cu        11.475267111   19.857572987   -5.668383977
 NEB|         Cu        14.023379938   19.857660028   -5.668944350
 NEB|         Cu        16.571469814   19.857392930   -5.668202680
 NEB|         Cu        19.119433939   19.856910895   -5.666542411
 NEB|         Cu        21.667237928   19.856412928   -5.664522515
 NEB|         Cu        24.214917863   19.856044995   -5.662746851
 NEB|         Cu        26.762551774   19.855846002   -5.661554957
 NEB|         Cu        29.310187932   19.855775879   -5.660901138
 NEB|         Cu        31.857843080   19.855767949   -5.660601159
 NEB|         Cu        34.405518075   19.855782927   -5.660535882
 NEB|         Cu        36.953196965   19.855800836   -5.660622758
 NEB|         Cu        39.500854109   19.855821871   -5.660873753
 NEB|         Cu         0.010613111   22.062316855   -5.660971764
 NEB|         Cu         2.558284997   22.062493961   -5.661455899
 NEB|         Cu         5.105927124   22.062870146   -5.662476863
 NEB|         Cu         7.653614130   22.063494158   -5.664136750
 NEB|         Cu        10.201441045   22.064157031   -5.665909123
 NEB|         Cu        12.749390967   22.064506922   -5.666916231
 NEB|         Cu        15.297367903   22.064422865   -5.666824437
 NEB|         Cu        17.845279928   22.063995054   -5.665802636
 NEB|         Cu        20.393090935   22.063401896   -5.664272583
 NEB|         Cu        22.940808952   22.062847017   -5.662756734
 NEB|         Cu        25.488492932   22.062468993   -5.661664065
 NEB|         Cu        28.036187899   22.062276858   -5.661047110
 NEB|         Cu        30.583906017   22.062200873   -5.660740179
 NEB|         Cu        33.131645023   22.062186905   -5.660633982
 NEB|         Cu        35.679393894   22.062203883   -5.660649756
 NEB|         Cu        38.227131058   22.062238972   -5.660747767
 NEB|         Cu         1.284562094   24.268836900   -5.660979746
 NEB|         Cu         3.832249005   24.269142030   -5.661417908
 NEB|         Cu         6.379918058   24.269691093   -5.662355818
 NEB|         Cu         8.927646096   24.270414005   -5.663709562
 NEB|         Cu        11.475482996   24.270986850   -5.664842250
 NEB|         Cu        14.023375944   24.271140915   -5.665195442
 NEB|         Cu        16.571248957   24.270873839   -5.664741526
 NEB|         Cu        19.119060986   24.270314869   -5.663732739
 NEB|         Cu        21.666804924   24.269668853   -5.662571680
 NEB|         Cu        24.214511948   24.269137879   -5.661644034
 NEB|         Cu        26.762225984   24.268807945   -5.661097061
 NEB|         Cu        29.309968943   24.268642046   -5.660823098
 NEB|         Cu        31.857737961   24.268580956   -5.660710985
 NEB|         Cu        34.405520898   24.268578932   -5.660689944
 NEB|         Cu        36.953300053   24.268613840   -5.660721839
 NEB|         Cu        39.501063959   24.268683980   -5.660796790
 NEB|         Cu         0.010735932   26.475146938   -5.660755834
 NEB|         Cu         2.558456046   26.475387849   -5.660904798
 NEB|         Cu         5.106142983   26.475819004   -5.661313934
 NEB|         Cu         7.653837055   26.476474954   -5.662134696
 NEB|         Cu        10.201603062   26.477155804   -5.663099493
 NEB|         Cu        12.749441961   26.477538817   -5.663678429
 NEB|         Cu        15.297291996   26.477485782   -5.663632559
 NEB|         Cu        17.845111925   26.477061895   -5.663074804
 NEB|         Cu        20.392878041   26.476436798   -5.662270707
 NEB|         Cu        22.940602959   26.475821907   -5.661529936
 NEB|         Cu        25.488319049   26.475371979   -5.661052077
 NEB|         Cu        28.036058010   26.475108897   -5.660817004
 NEB|         Cu        30.583827913   26.474980950   -5.660725951
 NEB|         Cu        33.131618024   26.474942902   -5.660701874
 NEB|         Cu        35.679416903   26.474961870   -5.660703914
 NEB|         Cu        38.227203099   26.475022895   -5.660716842
 NEB|         Cu         1.284596962   28.681626940   -5.660654885
 NEB|         Cu         3.832302985   28.681957040   -5.660798838
 NEB|         Cu         6.379994032   28.682484060   -5.661199918
 NEB|         Cu         8.927725001   28.683141881   -5.661868599
 NEB|         Cu        11.475526034   28.683669891   -5.662462624
 NEB|         Cu        14.023365943   28.683837802   -5.662670519
 NEB|         Cu        16.571196063   28.683604897   -5.662443728
 NEB|         Cu        19.118989956   28.683089889   -5.661941776
 NEB|         Cu        21.666737023   28.682479844   -5.661380874
 NEB|         Cu        24.214458051   28.681952941   -5.660964032
 NEB|         Cu        26.762185938   28.681594894   -5.660747011
 NEB|         Cu        29.309937991   28.681392886   -5.660674952
 NEB|         Cu        31.857717957   28.681302907   -5.660666914
 NEB|         Cu        34.405513896   28.681291897   -5.660670812
 NEB|         Cu        36.953307959   28.681336961   -5.660659872
 NEB|         Cu        39.501082989   28.681439862   -5.660641854
 NEB|         Cu         0.010698960   30.887860915   -5.660537884
 NEB|         Cu         2.558423014   30.888118859   -5.660552970
 NEB|         Cu         5.106125961   30.888527001   -5.660726913
 NEB|         Cu         7.653840991   30.889086071   -5.661119886
 NEB|         Cu        10.201613996   30.889648036   -5.661616765
 NEB|         Cu        12.749443029   30.889981916   -5.661933706
 NEB|         Cu        15.297288045   30.889953926   -5.661930739
 NEB|         Cu        17.845109966   30.889602793   -5.661653833
 NEB|         Cu        20.392887129   30.889066939   -5.661249851
 NEB|         Cu        22.940625930   30.888522920   -5.660888905
 NEB|         Cu        25.488347928   30.888091904   -5.660671985
 NEB|         Cu        28.036079020   30.887813873   -5.660599945
 NEB|         Cu        30.583835889   30.887662908   -5.660603923
 NEB|         Cu        33.131610948   30.887610793   -5.660621886
 NEB|         Cu        35.679394068   30.887629832   -5.660614867
 NEB|         Cu        38.227172958   30.887710792   -5.660576886
 NEB|         Cu         1.284507995   33.094284019   -5.660465819
 NEB|         Cu         3.832227006   33.094608012   -5.660515946
 NEB|         Cu         6.379945946   33.095066023   -5.660734922
 NEB|         Cu         8.927702060   33.095588994   -5.661096867
 NEB|         Cu        11.475518055   33.096004145   -5.661435822
 NEB|         Cu        14.023372995   33.096146076   -5.661565849
 NEB|         Cu        16.571224080   33.095973918   -5.661455857
 NEB|         Cu        19.119040004   33.095558094   -5.661178861
 NEB|         Cu        21.666807055   33.095054842   -5.660870862
 NEB|         Cu        24.214539894   33.094585106   -5.660644938
 NEB|         Cu        26.762258923   33.094241937   -5.660551910
 NEB|         Cu        29.309985939   33.094027808   -5.660551894
 NEB|         Cu        31.857728854   33.093921860   -5.660582879
 NEB|         Cu        34.405483039   33.093902896   -5.660593831
 NEB|         Cu        36.953246889   33.093955815   -5.660560923
 NEB|         Cu        39.500999112   33.094077902   -5.660501887
 NEB|         Cu         0.010549030   35.300441749   -5.660489818
 NEB|         Cu         2.558281049   35.300704956   -5.660480743
 NEB|         Cu         5.106015048   35.301082957   -5.660586797
 NEB|         Cu         7.653775044   35.301544148   -5.660838782
 NEB|         Cu        10.201586099   35.301983046   -5.661146792
 NEB|         Cu        12.749448078   35.302241925   -5.661355759
 NEB|         Cu        15.297329008   35.302223160   -5.661366697
 NEB|         Cu        17.845187981   35.301952057   -5.661195667
 NEB|         Cu        20.392999909   35.301521097   -5.660936673
 NEB|         Cu        22.940762899   35.301063902   -5.660702778
 NEB|         Cu        25.488486880   35.300673911   -5.660572789
 NEB|         Cu        28.036191849   35.300399952   -5.660546862
 NEB|         Cu        30.583890919   35.300239850   -5.660578857
 NEB|         Cu        33.131595995   35.300174764   -5.660611828
 NEB|         Cu        35.679313985   35.300185822   -5.660603821
 NEB|         Cu        38.227043036   35.300273810   -5.660551835
 NEB|         Cu         1.284257971   37.506793750   -5.660596889
 NEB|         Cu         3.832009923   37.507110763   -5.660631803
 NEB|         Cu         6.379791065   37.507515044   -5.660789799
 NEB|         Cu         8.927620053   37.507946068   -5.661048756
 NEB|         Cu        11.475502042   37.508274106   -5.661291657
 NEB|         Cu        14.023417070   37.508385172   -5.661392625
 NEB|         Cu        16.571328936   37.508250953   -5.661312490
 NEB|         Cu        19.119201971   37.507918930   -5.661103617
 NEB|         Cu        21.667019024   37.507495938   -5.660869699
 NEB|         Cu        24.214776932   37.507094887   -5.660697754
 NEB|         Cu        26.762478006   37.506782740   -5.660623898
 NEB|         Cu        29.310138986   37.506576797   -5.660629886
 NEB|         Cu        31.857776947   37.506465879   -5.660670840
 NEB|         Cu        34.405414923   37.506431837   -5.660698858
 NEB|         Cu        36.953071974   37.506469713   -5.660684840
 NEB|         Cu        39.500762959   37.506583754   -5.660635869
 NEB|         Cu         1.283966732    0.732875827   -3.601339915
 NEB|         Cu         3.831750811    0.733174893   -3.601436020
 NEB|         Cu         6.379618804    0.733574966   -3.601612213
 NEB|         Cu         8.927542809    0.733992004   -3.601855173
 NEB|         Cu        11.475495979    0.734298219   -3.602069193
 NEB|         Cu        14.023460087    0.734388247   -3.602143143
 NEB|         Cu        16.571419091    0.734239159   -3.602045130
 NEB|         Cu        19.119350168    0.733912033   -3.601825042
 NEB|         Cu        21.667223154    0.733517947   -3.601566016
 NEB|         Cu        24.215014067    0.733158934   -3.601338024
 NEB|         Cu        26.762707139    0.732896789   -3.601186948
 NEB|         Cu        29.310314081    0.732737781   -3.601124971
 NEB|         Cu        31.857860969    0.732655820   -3.601135855
 NEB|         Cu        34.405379955    0.732621814   -3.601185761
 NEB|         Cu        36.952914884    0.732629854   -3.601240789
 NEB|         Cu        39.500507029    0.732700853   -3.601288830
 NEB|         Cu         0.009822855    2.939074907   -3.601719712
 NEB|         Cu         2.557488891    2.939254887   -3.601974900
 NEB|         Cu         5.105314000    2.939582953   -3.602275088
 NEB|         Cu         7.653284957    2.940010056   -3.602595336
 NEB|         Cu        10.201353010    2.940412170   -3.602872549
 NEB|         Cu        12.749461931    2.940638158   -3.603013595
 NEB|         Cu        15.297566030    2.940599156   -3.602952573
 NEB|         Cu        17.845628927    2.940332110   -3.602705388
 NEB|         Cu        20.393602003    2.939957039   -3.602342198
 NEB|         Cu        22.941452110    2.939595004   -3.601950016
 NEB|         Cu        25.489165937    2.939325955   -3.601605979
 NEB|         Cu        28.036753106    2.939164916   -3.601371941
 NEB|         Cu        30.584245976    2.939087836   -3.601264818
 NEB|         Cu        33.131676018    2.939050824   -3.601267807
 NEB|         Cu        35.679085067    2.939025886   -3.601356670
 NEB|         Cu        38.226527755    2.939020839   -3.601509757
 NEB|         Cu         1.283334908    5.145462973   -3.602374709
 NEB|         Cu         3.830989041    5.145626939   -3.603011891
 NEB|         Cu         6.378871240    5.145956061   -3.603696060
 NEB|         Cu         8.926978249    5.146376118   -3.604292289
 NEB|         Cu        11.475245034    5.146727046   -3.604647454
 NEB|         Cu        14.023561936    5.146837979   -3.604657509
 NEB|         Cu        16.571824801    5.146674007   -3.604314466
 NEB|         Cu        19.119948937    5.146352074   -3.603718245
 NEB|         Cu        21.667893809    5.146011119   -3.603015974
 NEB|         Cu        24.215646907    5.145750978   -3.602343926
 NEB|         Cu        26.763240891    5.145602036   -3.601815862
 NEB|         Cu        29.310708934    5.145548876   -3.601479789
 NEB|         Cu        31.858088996    5.145539878   -3.601331662
 NEB|         Cu        34.405417978    5.145529810   -3.601347717
 NEB|         Cu        36.952735927    5.145490868   -3.601525679
 NEB|         Cu        39.500095022    5.145447878   -3.601866689
 NEB|         Cu         0.009486985    7.351904933   -3.602324769
 NEB|         Cu         2.556939077    7.351877051   -3.603273842
 NEB|         Cu         5.104617150    7.352020148   -3.604463018
 NEB|         Cu         7.652583247    7.352336117   -3.605699182
 NEB|         Cu        10.200837198    7.352707952   -3.606677232
 NEB|         Cu        12.749294120    7.352946832   -3.607063216
 NEB|         Cu        15.297773959    7.352924865   -3.606733201
 NEB|         Cu        17.846095926    7.352698017   -3.605834226
 NEB|         Cu        20.394185819    7.352408091   -3.604673150
 NEB|         Cu        22.942029845    7.352170144   -3.603519986
 NEB|         Cu        25.489673834    7.352038123   -3.602555893
 NEB|         Cu        28.037160916    7.352014007   -3.601865867
 NEB|         Cu        30.584535951    7.352050027   -3.601452698
 NEB|         Cu        33.131839906    7.352089953   -3.601285679
 NEB|         Cu        35.679110865    7.352079793   -3.601360662
 NEB|         Cu        38.226386841    7.352002867   -3.601695688
 NEB|         Cu         1.283249968    9.558380016   -3.602917848
 NEB|         Cu         3.830746232    9.558333170   -3.604405992
 NEB|         Cu         6.378493344    9.558484189   -3.606246049
 NEB|         Cu         8.926557109    9.558789066   -3.608075116
 NEB|         Cu        11.474918079    9.559070807   -3.609317073
 NEB|         Cu        14.023460059    9.559159912   -3.609459935
 NEB|         Cu        16.571936008    9.559039019   -3.608506885
 NEB|         Cu        19.120189768    9.558807997   -3.606912167
 NEB|         Cu        21.668178881    9.558593046   -3.605193070
 NEB|         Cu        24.215934780    9.558472031   -3.603683901
 NEB|         Cu        26.763493766    9.558469076   -3.602511834
 NEB|         Cu        29.310906764    9.558554059   -3.601715678
 NEB|         Cu        31.858232000    9.558657918   -3.601267684
 NEB|         Cu        34.405524954    9.558705910   -3.601148655
 NEB|         Cu        36.952811961    9.558660856   -3.601349801
 NEB|         Cu        39.500114109    9.558527984   -3.601914729
 NEB|         Cu         0.009773040   11.765046908   -3.602221941
 NEB|         Cu         2.557217093   11.764882023   -3.603639049
 NEB|         Cu         5.104802231   11.764871126   -3.605694249
 NEB|         Cu         7.652635262   11.765075157   -3.608150144
 NEB|         Cu        10.200760020   11.765369123   -3.610350719
 NEB|         Cu        12.749127902   11.765532044   -3.611443680
 NEB|         Cu        15.297583822   11.765481938   -3.611011688
 NEB|         Cu        17.845918973   11.765283831   -3.609375851
 NEB|         Cu        20.394039140   11.765062971   -3.607227986
 NEB|         Cu        22.941934714   11.764929927   -3.605145902
 NEB|         Cu        25.489600737   11.764928055   -3.603416854
 NEB|         Cu        28.037089803   11.765042169   -3.602146728
 NEB|         Cu        30.584485815   11.765199030   -3.601354743
 NEB|         Cu        33.131858953   11.765305994   -3.601004637
 NEB|         Cu        35.679233862   11.765318942   -3.601021684
 NEB|         Cu        38.226612053   11.765225861   -3.601394877
 NEB|         Cu         1.283839132   13.971563935   -3.602604103
 NEB|         Cu         3.831384254   13.971449055   -3.604408291
 NEB|         Cu         6.379061172   13.971548136   -3.606953388
 NEB|         Cu         8.926948013   13.971847997   -3.609768858
 NEB|         Cu        11.475049944   13.972116004   -3.611848453
 NEB|         Cu        14.023307855   13.972141983   -3.612355793
 NEB|         Cu        16.571572886   13.971947967   -3.611264894
 NEB|         Cu        19.119715182   13.971679030   -3.609127738
 NEB|         Cu        21.667684892   13.971486004   -3.606671686
 NEB|         Cu        24.215447831   13.971439155   -3.604429783
 NEB|         Cu        26.763034729   13.971539132   -3.602686799
 NEB|         Cu        29.310538815   13.971705106   -3.601558824
 NEB|         Cu        31.858035912   13.971845957   -3.600990819
 NEB|         Cu        34.405540042   13.971908917   -3.600833754
 NEB|         Cu        36.953049068   13.971873952   -3.601007755
 NEB|         Cu        39.500561004   13.971746886   -3.601540852
 NEB|         Cu         0.010408091   16.178233849   -3.601755798
 NEB|         Cu         2.558034237   16.178109906   -3.602987132
 NEB|         Cu         5.105676152   16.178133017   -3.605071242
 NEB|         Cu         7.653408946   16.178412969   -3.607873091
 NEB|         Cu        10.201281928   16.178801910   -3.610567666
 NEB|         Cu        12.749284986   16.178981944   -3.612034549
 NEB|         Cu        15.297356860   16.178850137   -3.611817792
 NEB|         Cu        17.845393952   16.178539288   -3.610192768
 NEB|         Cu        20.393326000   16.178240039   -3.607785558
 NEB|         Cu        22.941120023   16.178075926   -3.605282740
 NEB|         Cu        25.488795809   16.178079940   -3.603214894
 NEB|         Cu        28.036427782   16.178191914   -3.601842981
 NEB|         Cu        30.584063908   16.178317976   -3.601114953
 NEB|         Cu        33.131706081   16.178405915   -3.600822853
 NEB|         Cu        35.679352026   16.178424786   -3.600833835
 NEB|         Cu        38.226994230   16.178357958   -3.601120659
 NEB|         Cu         1.284533230   18.384716078   -3.601963767
 NEB|         Cu         3.832251211   18.384720151   -3.603275143
 NEB|         Cu         6.379956001   18.384964078   -3.605458037
 NEB|         Cu         8.927695880   18.385441002   -3.608130757
 NEB|         Cu        11.475501004   18.385821957   -3.610210464
 NEB|         Cu        14.023352933   18.385860033   -3.610853310
 NEB|         Cu        16.571210948   18.385597334   -3.610000662
 NEB|         Cu        19.119037917   18.385212175   -3.608069712
 NEB|         Cu        21.666800041   18.384874014   -3.605710726
 NEB|         Cu        24.214521012   18.384696871   -3.603595827
 NEB|         Cu        26.762256774   18.384680029   -3.602134987
 NEB|         Cu        29.310010845   18.384748044   -3.601326051
 NEB|         Cu        31.857766959   18.384825016   -3.600949040
 NEB|         Cu        34.405521033   18.384870879   -3.600851934
 NEB|         Cu        36.953273981   18.384860927   -3.600962833
 NEB|         Cu        39.501019229   18.384795984   -3.601292698
 NEB|         Cu         0.010820128   20.591227857   -3.601438811
 NEB|         Cu         2.558616143   20.591240000   -3.602091825
 NEB|         Cu         5.106373200   20.591431225   -3.603395951
 NEB|         Cu         7.654091962   20.591917103   -3.605453629
 NEB|         Cu        10.201803902   20.592484033   -3.607595464
 NEB|         Cu        12.749519046   20.592759944   -3.608814316
 NEB|         Cu        15.297229803   20.592649058   -3.608710477
 NEB|         Cu        17.844939974   20.592277974   -3.607485715
 NEB|         Cu        20.392647069   20.591805949   -3.605610658
 NEB|         Cu        22.940368895   20.591414970   -3.603721700
 NEB|         Cu        25.488141973   20.591215048   -3.602333975
 NEB|         Cu        28.035958789   20.591178959   -3.601531093
 NEB|         Cu        30.583782046   20.591210956   -3.601122180
 NEB|         Cu        33.131606886   20.591250947   -3.600969057
 NEB|         Cu        35.679424160   20.591269966   -3.600981824
 NEB|         Cu        38.227241900   20.591256937   -3.601121804
 NEB|         Cu         1.284789123   22.797688881   -3.601496874
 NEB|         Cu         3.832592071   22.797836133   -3.602100802
 NEB|         Cu         6.380344093   22.798244213   -3.603317769
 NEB|         Cu         8.928049935   22.798887140   -3.605029406
 NEB|         Cu        11.475727032   22.799400060   -3.606430295
 NEB|         Cu        14.023378977   22.799512898   -3.606867392
 NEB|         Cu        16.571023882   22.799255166   -3.606306771
 NEB|         Cu        19.118690060   22.798765078   -3.605052789
 NEB|         Cu        21.666393000   22.798222970   -3.603567731
 NEB|         Cu        24.214156920   22.797833907   -3.602370018
 NEB|         Cu        26.761973973   22.797650869   -3.601642100
 NEB|         Cu        29.309815949   22.797601906   -3.601259089
 NEB|         Cu        31.857665979   22.797608893   -3.601089076
 NEB|         Cu        34.405514065   22.797629849   -3.601053955
 NEB|         Cu        36.953357950   22.797643834   -3.601101740
 NEB|         Cu        39.501193994   22.797650935   -3.601223824
 NEB|         Cu         0.010867976   25.004073926   -3.601226846
 NEB|         Cu         2.558674058   25.004205878   -3.601451864
 NEB|         Cu         5.106451016   25.004515070   -3.602002869
 NEB|         Cu         7.654183968   25.005094940   -3.603059691
 NEB|         Cu        10.201881030   25.005743058   -3.604284483
 NEB|         Cu        12.749547962   25.006097852   -3.605002402
 NEB|         Cu        15.297195036   25.006026982   -3.604938658
 NEB|         Cu        17.844858022   25.005628928   -3.604239793
 NEB|         Cu        20.392555056   25.005052869   -3.603206853
 NEB|         Cu        22.940296046   25.004523895   -3.602253965
 NEB|         Cu        25.488085005   25.004186930   -3.601629105
 NEB|         Cu        28.035905892   25.004027923   -3.601299099
 NEB|         Cu        30.583744003   25.003974926   -3.601150983
 NEB|         Cu        33.131591854   25.003972975   -3.601100976
 NEB|         Cu        35.679435915   25.003993824   -3.601106852
 NEB|         Cu        38.227272017   25.004020888   -3.601142792
 NEB|         Cu         1.284714929   27.210540963   -3.601139896
 NEB|         Cu         3.832486972   27.210784950   -3.601338829
 NEB|         Cu         6.380234001   27.211238945   -3.601849877
 NEB|         Cu         8.927960044   27.211873936   -3.602687734
 NEB|         Cu        11.475672034   27.212398781   -3.603431568
 NEB|         Cu        14.023368956   27.212546899   -3.603677585
 NEB|         Cu        16.571064045   27.212310995   -3.603392768
 NEB|         Cu        19.118778027   27.211812831   -3.602760744
 NEB|         Cu        21.666511960   27.211238795   -3.602054906
 NEB|         Cu        24.214269961   27.210782850   -3.601531901
 NEB|         Cu        26.762053027   27.210504927   -3.601243052
 NEB|         Cu        29.309859929   27.210370968   -3.601125987
 NEB|         Cu        31.857681015   27.210324926   -3.601091892
 NEB|         Cu        34.405509924   27.210328963   -3.601087926
 NEB|         Cu        36.953334996   27.210360961   -3.601088802
 NEB|         Cu        39.501148010   27.210422866   -3.601092864
 NEB|         Cu         0.010756925   29.416856877   -3.600980856
 NEB|         Cu         2.558518982   29.417054941   -3.601015944
 NEB|         Cu         5.106264949   29.417405984   -3.601225941
 NEB|         Cu         7.654003045   29.417935912   -3.601698883
 NEB|         Cu        10.201746936   29.418506775   -3.602299721
 NEB|         Cu        12.749496020   29.418836741   -3.602676719
 NEB|         Cu        15.297243059   29.418796875   -3.602667706
 NEB|         Cu        17.844991950   29.418441807   -3.602332806
 NEB|         Cu        20.392738047   29.417914925   -3.601844851
 NEB|         Cu        22.940485002   29.417404026   -3.601411873
 NEB|         Cu        25.488241036   29.417028027   -3.601145031
 NEB|         Cu        28.036012980   29.416804973   -3.601040996
 NEB|         Cu        30.583800945   29.416697917   -3.601026906
 NEB|         Cu        33.131599154   29.416667850   -3.601036822
 NEB|         Cu        35.679404918   29.416686876   -3.601032852
 NEB|         Cu        38.227202944   29.416745968   -3.601006869
 NEB|         Cu         1.284564995   31.623321967   -3.600866819
 NEB|         Cu         3.832309016   31.623600082   -3.600927909
 NEB|         Cu         6.380050940   31.624026998   -3.601173880
 NEB|         Cu         8.927805015   31.624546034   -3.601589930
 NEB|         Cu        11.475582003   31.624972913   -3.601982730
 NEB|         Cu        14.023373967   31.625108861   -3.602127833
 NEB|         Cu        16.571163028   31.624927806   -3.601999792
 NEB|         Cu        19.118940014   31.624509876   -3.601679817
 NEB|         Cu        21.666698085   31.624015819   -3.601326913
 NEB|         Cu        24.214446988   31.623578923   -3.601067981
 NEB|         Cu        26.762195966   31.623273924   -3.600953935
 NEB|         Cu        29.309951942   31.623095951   -3.600942928
 NEB|         Cu        31.857717937   31.623015970   -3.600967827
 NEB|         Cu        34.405490961   31.623008806   -3.600977789
 NEB|         Cu        36.953266071   31.623052836   -3.600950804
 NEB|         Cu        39.501037880   31.623151907   -3.600898889
 NEB|         Cu         0.010612041   33.829575006   -3.600823873
 NEB|         Cu         2.558359932   33.829810938   -3.600815814
 NEB|         Cu         5.106106032   33.830158063   -3.600931869
 NEB|         Cu         7.653866022   33.830608053   -3.601208761
 NEB|         Cu        10.201653016   33.831050943   -3.601551823
 NEB|         Cu        12.749468036   33.831310003   -3.601781871
 NEB|         Cu        15.297293016   33.831287055   -3.601790791
 NEB|         Cu        17.845107947   33.831008958   -3.601600869
 NEB|         Cu        20.392894935   33.830578024   -3.601316713
 NEB|         Cu        22.940656950   33.830131964   -3.601061886
 NEB|         Cu        25.488400908   33.829765018   -3.600917899
 NEB|         Cu        28.036134919   33.829520875   -3.600886871
 NEB|         Cu        30.583865926   33.829383813   -3.600914854
 NEB|         Cu        33.131599133   33.829333840   -3.600943844
 NEB|         Cu        35.679343796   33.829349924   -3.600934777
 NEB|         Cu        38.227089151   33.829429790   -3.600882820
 NEB|         Cu         1.284385953   36.036014810   -3.600838791
 NEB|         Cu         3.832143969   36.036312031   -3.600878768
 NEB|         Cu         6.379916982   36.036705046   -3.601053754
 NEB|         Cu         8.927714114   36.037132052   -3.601337727
 NEB|         Cu        11.475545027   36.037460103   -3.601601689
 NEB|         Cu        14.023396016   36.037570862   -3.601711660
 NEB|         Cu        16.571244984   36.037422148   -3.601623737
 NEB|         Cu        19.119071951   36.037086038   -3.601402640
 NEB|         Cu        21.666866020   36.036663054   -3.601152719
 NEB|         Cu        24.214628004   36.036266168   -3.600971813
 NEB|         Cu        26.762357952   36.035964943   -3.600898895
 NEB|         Cu        29.310062070   36.035773841   -3.600907839
 NEB|         Cu        31.857751943   36.035674954   -3.600947774
 NEB|         Cu        34.405440952   36.035655686   -3.600966775
 NEB|         Cu        36.953143959   36.035697917   -3.600939873
 NEB|         Cu        39.500869932   36.035811962   -3.600880823
 NEB|         Cu         0.010351799   38.242202891   -3.601006921
 NEB|         Cu         2.558107859   38.242457787   -3.601008871
 NEB|         Cu         5.105905805   38.242812859   -3.601106924
 NEB|         Cu         7.653734899   38.243225073   -3.601323914
 NEB|         Cu        10.201593990   38.243599067   -3.601588873
 NEB|         Cu        12.749475986   38.243809117   -3.601765838
 NEB|         Cu        15.297365058   38.243782226   -3.601767845
 NEB|         Cu        17.845242071   38.243541945   -3.601608823
 NEB|         Cu        20.393091101   38.243163992   -3.601373816
 NEB|         Cu        22.940895164   38.242763750   -3.601157929
 NEB|         Cu        25.488645959   38.242423707   -3.601023884
 NEB|         Cu        28.036335108   38.242183965   -3.600979911
 NEB|         Cu        30.583979016   38.242049723   -3.600998984
 NEB|         Cu        33.131596002   38.241988726   -3.601038884
 NEB|         Cu        35.679218027   38.241988798   -3.601058806
 NEB|         Cu        38.226874836   38.242053751   -3.601041835
 NEB|         Cu         0.010037933    1.468324961   -1.521851829
 NEB|         Cu         2.557772988    1.468542914   -1.521975972
 NEB|         Cu         5.105622955    1.468911066   -1.522160053
 NEB|         Cu         7.653553048    1.469379059   -1.522414260
 NEB|         Cu        10.201520934    1.469810059   -1.522680434
 NEB|         Cu        12.749493962    1.470041110   -1.522841487
 NEB|         Cu        15.297461899    1.469987081   -1.522814293
 NEB|         Cu        17.845413039    1.469689072   -1.522616159
 NEB|         Cu        20.393327833    1.469274935   -1.522327070
 NEB|         Cu        22.941165969    1.468872010   -1.522028971
 NEB|         Cu        25.488904906    1.468570878   -1.521781948
 NEB|         Cu        28.036544912    1.468385832   -1.521629884
 NEB|         Cu        30.584105036    1.468292876   -1.521574927
 NEB|         Cu        33.131617863    1.468249807   -1.521597889
 NEB|         Cu        35.679115067    1.468228964   -1.521665766
 NEB|         Cu        38.226649981    1.468240895   -1.521751727
 NEB|         Cu         1.283555000    3.674695064   -1.522415945
 NEB|         Cu         3.831280107    3.674924992   -1.522809111
 NEB|         Cu         6.379192152    3.675344007   -1.523238266
 NEB|         Cu         8.927253193    3.675854031   -1.523640344
 NEB|         Cu        11.475395055    3.676258983   -1.523908381
 NEB|         Cu        14.023547852    3.676366956   -1.523944359
 NEB|         Cu        16.571662851    3.676153947   -1.523725408
 NEB|         Cu        19.119695786    3.675754946   -1.523322234
 NEB|         Cu        21.667602751    3.675340020   -1.522832010
 NEB|         Cu        24.215360788    3.675023933   -1.522353004
 NEB|         Cu        26.762990788    3.674832945   -1.521979879
 NEB|         Cu        29.310515997    3.674745903   -1.521752917
 NEB|         Cu        31.857970867    3.674713935   -1.521672783
 NEB|         Cu        34.405376172    3.674691885   -1.521712779
 NEB|         Cu        36.952781780    3.674656920   -1.521854759
 NEB|         Cu        39.500229017    3.674635941   -1.522089814
 NEB|         Cu         0.009573035    5.881036975   -1.522572802
 NEB|         Cu         2.557070097    5.881051067   -1.523296953
 NEB|         Cu         5.104784205    5.881268999   -1.524179089
 NEB|         Cu         7.652775199    5.881699988   -1.525068170
 NEB|         Cu        10.201015234    5.882195988   -1.525742060
 NEB|         Cu        12.749401114    5.882503848   -1.525986100
 NEB|         Cu        15.297771912    5.882452819   -1.525733245
 NEB|         Cu        17.846000708    5.882135927   -1.525078191
 NEB|         Cu        20.394015720    5.881751008   -1.524213062
 NEB|         Cu        22.941815722    5.881444972   -1.523333990
 NEB|         Cu        25.489449860    5.881263003   -1.522599852
 NEB|         Cu        28.036965796    5.881196019   -1.522081898
 NEB|         Cu        30.584393944    5.881198012   -1.521792758
 NEB|         Cu        33.131759863    5.881213978   -1.521699704
 NEB|         Cu        35.679088992    5.881189898   -1.521790811
 NEB|         Cu        38.226421053    5.881114042   -1.522075695
 NEB|         Cu         1.283259987    8.087443017   -1.523211925
 NEB|         Cu         3.830740149    8.087419149   -1.524495083
 NEB|         Cu         6.378473190    8.087627195   -1.526069070
 NEB|         Cu         8.926555115    8.088042973   -1.527580187
 NEB|         Cu        11.474970004    8.088440732   -1.528533227
 NEB|         Cu        14.023564996    8.088578734   -1.528556096
 NEB|         Cu        16.572028785    8.088404893   -1.527702080
 NEB|         Cu        19.120215816    8.088095964   -1.526333100
 NEB|         Cu        21.668118938    8.087819947   -1.524868112
 NEB|         Cu        24.215812777    8.087657021   -1.523609947
 NEB|         Cu        26.763356819    8.087618989   -1.522663866
 NEB|         Cu        29.310796862    8.087668141   -1.522042798
 NEB|         Cu        31.858163916    8.087748018   -1.521710688
 NEB|         Cu        34.405491055    8.087781925   -1.521640749
 NEB|         Cu        36.952805004    8.087723876   -1.521842767
 NEB|         Cu        39.500125997    8.087584053   -1.522342818
 NEB|         Cu         0.009746088   10.294038997   -1.522710911
 NEB|         Cu         2.557150097   10.293851117   -1.524037088
 NEB|         Cu         5.104677271   10.293834203   -1.525980177
 NEB|         Cu         7.652477169   10.294080090   -1.528293034
 NEB|         Cu        10.200640964   10.294458843   -1.530313088
 NEB|         Cu        12.749127798   10.294697693   -1.531232011
 NEB|         Cu        15.297706640   10.294654798   -1.530684077
 NEB|         Cu        17.846059891   10.294419950   -1.529042294
 NEB|         Cu        20.394130931   10.294165941   -1.527005039
 NEB|         Cu        22.941953774   10.294010005   -1.525105017
 NEB|         Cu        25.489579883   10.293997968   -1.523589035
 NEB|         Cu        28.037066931   10.294101085   -1.522501855
 NEB|         Cu        30.584470765   10.294254139   -1.521823749
 NEB|         Cu        33.131850859   10.294363065   -1.521520727
 NEB|         Cu        35.679229926   10.294367897   -1.521552751
 NEB|         Cu        38.226604046   10.294249851   -1.521924869
 NEB|         Cu         1.283801164   12.500476020   -1.523187108
 NEB|         Cu         3.831286217   12.500296179   -1.525013252
 NEB|         Cu         6.378898033   12.500364134   -1.527604162
 NEB|         Cu         8.926761868   12.500697060   -1.530453829
 NEB|         Cu        11.474916894   12.501018847   -1.532528602
 NEB|         Cu        14.023292813   12.501065832   -1.532929751
 NEB|         Cu        16.571652910   12.500857965   -1.531666352
 NEB|         Cu        19.119835001   12.500575952   -1.529408317
 NEB|         Cu        21.667796930   12.500388887   -1.526972976
 NEB|         Cu        24.215534021   12.500369984   -1.524814051
 NEB|         Cu        26.763095798   12.500506176   -1.523159881
 NEB|         Cu        29.310567838   12.500719115   -1.522067819
 NEB|         Cu        31.858047027   12.500891994   -1.521503825
 NEB|         Cu        34.405551991   12.500962991   -1.521349710
 NEB|         Cu        36.953064135   12.500909946   -1.521532770
 NEB|         Cu        39.500564851   12.500732887   -1.522092976
 NEB|         Cu         0.010461055   14.707169889   -1.522346070
 NEB|         Cu         2.558044240   14.706930081   -1.523708285
 NEB|         Cu         5.105618119   14.706858085   -1.525981169
 NEB|         Cu         7.653286856   14.707102987   -1.529021023
 NEB|         Cu        10.201145675   14.707524994   -1.531922783
 NEB|         Cu        12.749188842   14.707739753   -1.533455713
 NEB|         Cu        15.297322996   14.707574938   -1.533128165
 NEB|         Cu        17.845431878   14.707229046   -1.531291485
 NEB|         Cu        20.393412014   14.706938932   -1.528696216
 NEB|         Cu        22.941211999   14.706837996   -1.526066954
 NEB|         Cu        25.488851740   14.706936061   -1.523888759
 NEB|         Cu        28.036427935   14.707148077   -1.522413882
 NEB|         Cu        30.584048860   14.707346101   -1.521620917
 NEB|         Cu        33.131706110   14.707466043   -1.521301816
 NEB|         Cu        35.679379030   14.707479991   -1.521317725
 NEB|         Cu        38.227047183   14.707375878   -1.521634831
 NEB|         Cu         1.284686123   16.913589004   -1.522616117
 NEB|         Cu         3.832374056   16.913463979   -1.524150343
 NEB|         Cu         6.380008948   16.913615924   -1.526689965
 NEB|         Cu         8.927683801   16.914089056   -1.529769881
 NEB|         Cu        11.475461704   16.914528016   -1.532144848
 NEB|         Cu        14.023299890   16.914544926   -1.532854812
 NEB|         Cu        16.571161017   16.914213206   -1.531837001
 NEB|         Cu        19.119010908   16.913794314   -1.529622303
 NEB|         Cu        21.666771035   16.913515105   -1.526930848
 NEB|         Cu        24.214452875   16.913454113   -1.524490668
 NEB|         Cu        26.762142014   16.913568028   -1.522787905
 NEB|         Cu        29.309908024   16.913736040   -1.521850996
 NEB|         Cu        31.857715961   16.913873954   -1.521413916
 NEB|         Cu        34.405529097   16.913938871   -1.521295910
 NEB|         Cu        36.953342025   16.913905909   -1.521429798
 NEB|         Cu        39.501144123   16.913775965   -1.521824839
 NEB|         Cu         0.011028196   19.120149932   -1.522021725
 NEB|         Cu         2.558880173   19.120043088   -1.522821068
 NEB|         Cu         5.106626015   19.120129128   -1.524406099
 NEB|         Cu         7.654275882   19.120585977   -1.526920784
 NEB|         Cu        10.201909755   19.121217989   -1.529534840
 NEB|         Cu        12.749547787   19.121505989   -1.531005655
 NEB|         Cu        15.297172871   19.121338255   -1.530880698
 NEB|         Cu        17.844808991   19.120914340   -1.529408095
 NEB|         Cu        20.392463923   19.120434169   -1.527117995
 NEB|         Cu        22.940132080   19.120116931   -1.524789796
 NEB|         Cu        25.487886078   19.120029005   -1.523090907
 NEB|         Cu        28.035750912   19.120102026   -1.522118068
 NEB|         Cu        30.583657943   19.120218072   -1.521621053
 NEB|         Cu        33.131565120   19.120303989   -1.521418990
 NEB|         Cu        35.679470056   19.120326852   -1.521425904
 NEB|         Cu        38.227367184   19.120269830   -1.521612779
 NEB|         Cu         1.285069157   21.326549898   -1.522141779
 NEB|         Cu         3.832931176   21.326586257   -1.522900864
 NEB|         Cu         6.380667936   21.326951993   -1.524419788
 NEB|         Cu         8.928294836   21.327651951   -1.526584636
 NEB|         Cu        11.475868868   21.328235918   -1.528356614
 NEB|         Cu        14.023386867   21.328325051   -1.528896563
 NEB|         Cu        16.570889977   21.328014293   -1.528215899
 NEB|         Cu        19.118443936   21.327475136   -1.526632065
 NEB|         Cu        21.666065122   21.326926904   -1.524728915
 NEB|         Cu        24.213810078   21.326592894   -1.523222763
 NEB|         Cu        26.761685881   21.326506055   -1.522314014
 NEB|         Cu        29.309620097   21.326556968   -1.521819097
 NEB|         Cu        31.857568927   21.326629914   -1.521582135
 NEB|         Cu        34.405510147   21.326673934   -1.521522899
 NEB|         Cu        36.953448986   21.326671805   -1.521584970
 NEB|         Cu        39.501381030   21.326615874   -1.521767828
 NEB|         Cu         0.011091925   23.532992861   -1.521827870
 NEB|         Cu         2.558983033   23.533023921   -1.522141850
 NEB|         Cu         5.106799023   23.533260089   -1.522836824
 NEB|         Cu         7.654493908   23.533870980   -1.524177650
 NEB|         Cu        10.202097933   23.534617939   -1.525748569
 NEB|         Cu        12.749636871   23.535008902   -1.526650485
 NEB|         Cu        15.297129974   23.534904056   -1.526560841
 NEB|         Cu        17.844649933   23.534451078   -1.525686947
 NEB|         Cu        20.392241058   23.533814997   -1.524356956
 NEB|         Cu        22.939945007   23.533277886   -1.523144768
 NEB|         Cu        25.487768065   23.533004932   -1.522359952
 NEB|         Cu        28.035667122   23.532937910   -1.521920149
 NEB|         Cu        30.583601029   23.532960903   -1.521699086
 NEB|         Cu        33.131541855   23.532998963   -1.521614953
 NEB|         Cu        35.679473985   23.533021819   -1.521619862
 NEB|         Cu        38.227401990   23.533013847   -1.521683852
 NEB|         Cu         1.284936928   25.739432878   -1.521773850
 NEB|         Cu         3.832768981   25.739597106   -1.522036889
 NEB|         Cu         6.380524994   25.740032142   -1.522667825
 NEB|         Cu         8.928196894   25.740749056   -1.523726668
 NEB|         Cu        11.475808021   25.741353886   -1.524661603
 NEB|         Cu        14.023374963   25.741504849   -1.524946743
 NEB|         Cu        16.570935981   25.741228032   -1.524596874
 NEB|         Cu        19.118542021   25.740663956   -1.523801891
 NEB|         Cu        21.666220132   25.740039875   -1.522914861
 NEB|         Cu        24.213985041   25.739604878   -1.522268925
 NEB|         Cu        26.761820068   25.739393012   -1.521897032
 NEB|         Cu        29.309700053   25.739331920   -1.521718981
 NEB|         Cu        31.857601045   25.739335930   -1.521645977
 NEB|         Cu        34.405505915   25.739358853   -1.521629882
 NEB|         Cu        36.953403065   25.739375918   -1.521643851
 NEB|         Cu        39.501292982   25.739388880   -1.521678855
 NEB|         Cu         0.010894940   27.945815931   -1.521580839
 NEB|         Cu         2.558708013   27.945949956   -1.521643887
 NEB|         Cu         5.106482926   27.946258901   -1.521893865
 NEB|         Cu         7.654204974   27.946815018   -1.522455790
 NEB|         Cu        10.201890906   27.947469932   -1.523191780
 NEB|         Cu        12.749550023   27.947833840   -1.523639721
 NEB|         Cu        15.297193970   27.947778945   -1.523621858
 NEB|         Cu        17.844849030   27.947373976   -1.523217868
 NEB|         Cu        20.392538077   27.946794825   -1.522628860
 NEB|         Cu        22.940268106   27.946269835   -1.522111910
 NEB|         Cu        25.488047057   27.945928922   -1.521789954
 NEB|         Cu        28.035866040   27.945762918   -1.521643992
 NEB|         Cu        30.583712035   27.945706917   -1.521599904
 NEB|         Cu        33.131572821   27.945704935   -1.521592845
 NEB|         Cu        35.679431982   27.945725907   -1.521590839
 NEB|         Cu        38.227286791   27.945760762   -1.521582814
 NEB|         Cu         1.284681925   30.152299968   -1.521440859
 NEB|         Cu         3.832451001   30.152533045   -1.521513871
 NEB|         Cu         6.380195940   30.152950012   -1.521784849
 NEB|         Cu         8.927923035   30.153516875   -1.522261855
 NEB|         Cu        11.475652909   30.153995765   -1.522716689
 NEB|         Cu        14.023375011   30.154134914   -1.522876818
 NEB|         Cu        16.571094958   30.153928871   -1.522730873
 NEB|         Cu        19.118818135   30.153467029   -1.522365836
 NEB|         Cu        21.666552009   30.152945977   -1.521963886
 NEB|         Cu        24.214300093   30.152519087   -1.521670905
 NEB|         Cu        26.762073974   30.152252072   -1.521529994
 NEB|         Cu        29.309867958   30.152120928   -1.521500932
 NEB|         Cu        31.857677039   30.152074878   -1.521513815
 NEB|         Cu        34.405494833   30.152078889   -1.521520814
 NEB|         Cu        36.953308103   30.152112964   -1.521501803
 NEB|         Cu        39.501117999   30.152179934   -1.521463804
 NEB|         Cu         0.010692040   32.358638822   -1.521342786
 NEB|         Cu         2.558457006   32.358829159   -1.521334889
 NEB|         Cu         5.106209035   32.359154078   -1.521456895
 NEB|         Cu         7.653957933   32.359615054   -1.521752852
 NEB|         Cu        10.201716067   32.360095867   -1.522131867
 NEB|         Cu        12.749491949   32.360377823   -1.522383860
 NEB|         Cu        15.297266065   32.360347809   -1.522390834
 NEB|         Cu        17.845036022   32.360042917   -1.522186801
 NEB|         Cu        20.392793919   32.359585028   -1.521875861
 NEB|         Cu        22.940544030   32.359134973   -1.521602818
 NEB|         Cu        25.488296914   32.358787995   -1.521442899
 NEB|         Cu        28.036054935   32.358577859   -1.521402856
 NEB|         Cu        30.583819982   32.358470992   -1.521423839
 NEB|         Cu        33.131591873   32.358443740   -1.521448767
 NEB|         Cu        35.679366998   32.358462813   -1.521440761
 NEB|         Cu        38.227145954   32.358523857   -1.521395804
 NEB|         Cu         1.284479992   34.565124984   -1.521283767
 NEB|         Cu         3.832242016   34.565395038   -1.521325773
 NEB|         Cu         6.380005010   34.565780900   -1.521510761
 NEB|         Cu         8.927780070   34.566222876   -1.521811806
 NEB|         Cu        11.475577040   34.566570025   -1.522092841
 NEB|         Cu        14.023387995   34.566684951   -1.522209784
 NEB|         Cu        16.571195848   34.566527898   -1.522116777
 NEB|         Cu        19.118986078   34.566173775   -1.521882757
 NEB|         Cu        21.666760912   34.565738930   -1.521620798
 NEB|         Cu        24.214519876   34.565349870   -1.521431809
 NEB|         Cu        26.762263949   34.565066880   -1.521355840
 NEB|         Cu        29.309998916   34.564898942   -1.521362817
 NEB|         Cu        31.857724933   34.564822904   -1.521398685
 NEB|         Cu        34.405453097   34.564811959   -1.521412765
 NEB|         Cu        36.953193944   34.564853961   -1.521382783
 NEB|         Cu        39.500946083   34.564953032   -1.521323803
 NEB|         Cu         0.010480875   36.771396821   -1.521345844
 NEB|         Cu         2.558250922   36.771632889   -1.521342839
 NEB|         Cu         5.106037923   36.771975876   -1.521448861
 NEB|         Cu         7.653836992   36.772388066   -1.521684827
 NEB|         Cu        10.201653085   36.772773843   -1.521969801
 NEB|         Cu        12.749484915   36.772990929   -1.522160732
 NEB|         Cu        15.297319012   36.772963860   -1.522162719
 NEB|         Cu        17.845146007   36.772708900   -1.521994768
 NEB|         Cu        20.392958000   36.772319955   -1.521749805
 NEB|         Cu        22.940744099   36.771912020   -1.521529916
 NEB|         Cu        25.488502859   36.771576020   -1.521400923
 NEB|         Cu        28.036222028   36.771350892   -1.521366821
 NEB|         Cu        30.583911940   36.771228774   -1.521390877
 NEB|         Cu        33.131583989   36.771178921   -1.521424838
 NEB|         Cu        35.679263848   36.771186967   -1.521429833
 NEB|         Cu        38.226967052   36.771254895   -1.521394829
 NEB|         Cu         1.284175847   38.977836889   -1.521531948
 NEB|         Cu         3.831975873   38.978141863   -1.521595030
 NEB|         Cu         6.379819854   38.978549793   -1.521767148
 NEB|         Cu         8.927684767   38.978973126   -1.522029190
 NEB|         Cu        11.475554961   38.979290049   -1.522267135
 NEB|         Cu        14.023428082   38.979378200   -1.522354145
 NEB|         Cu        16.571301098   38.979218106   -1.522259056
 NEB|         Cu        19.119165175   38.978874070   -1.522039016
 NEB|         Cu        21.667004076   38.978465720   -1.521792964
 NEB|         Cu        24.214794103   38.978091687   -1.521595968
 NEB|         Cu        26.762518072   38.977817925   -1.521483004
 NEB|         Cu        29.310178902   38.977656823   -1.521453922
 NEB|         Cu        31.857790039   38.977576913   -1.521476861
 NEB|         Cu        34.405384068   38.977550795   -1.521514876
 NEB|         Cu        36.952999002   38.977569846   -1.521534867
 NEB|         Cu        39.500667774   38.977653846   -1.521531850
 NEB|         Cu         0.010231032   -0.002495903    0.558564110
 NEB|         Cu         2.558013920   -0.002291894    0.558512996
 NEB|         Cu         5.105861955   -0.001943850    0.558376840
 NEB|         Cu         7.653742903   -0.001497906    0.558128650
 NEB|         Cu        10.201626838   -0.001084072    0.557842584
 NEB|         Cu        12.749502033   -0.000863111    0.557662595
 NEB|         Cu        15.297376974   -0.000917994    0.557682649
 NEB|         Cu        17.845249106   -0.001206969    0.557872823
 NEB|         Cu        20.393111945   -0.001612007    0.558137881
 NEB|         Cu        22.940934899   -0.002001971    0.558388997
 NEB|         Cu        25.488687838   -0.002287950    0.558576995
 NEB|         Cu        28.036366870   -0.002454981    0.558675006
 NEB|         Cu        30.583983970   -0.002531047    0.558696020
 NEB|         Cu        33.131568849   -0.002564064    0.558666121
 NEB|         Cu        35.679149970   -0.002580964    0.558622219
 NEB|         Cu        38.226768036   -0.002571974    0.558590157
 NEB|         Cu         1.283784134    2.203873177    0.558152079
 NEB|         Cu         3.831579144    2.204122128    0.557939936
 NEB|         Cu         6.379499191    2.204559178    0.557663796
 NEB|         Cu         8.927491153    2.205079094    0.557342692
 NEB|         Cu        11.475503017    2.205474961    0.557082711
 NEB|         Cu        14.023505917    2.205565941    0.557014754
 NEB|         Cu        16.571494769    2.205340009    0.557169759
 NEB|         Cu        19.119447735    2.204928032    0.557469849
 NEB|         Cu        21.667327732    2.204500089    0.557829954
 NEB|         Cu        24.215098695    2.204181002    0.558173019
 NEB|         Cu        26.762763735    2.203995063    0.558429137
 NEB|         Cu        29.310340759    2.203917999    0.558573118
 NEB|         Cu        31.857856901    2.203890987    0.558607155
 NEB|         Cu        34.405338068    2.203867019    0.558560228
 NEB|         Cu        36.952824151    2.203830066    0.558461227
 NEB|         Cu        39.500366045    2.203807076    0.558325105
 NEB|         Cu         0.009663121    4.410169059    0.557888040
 NEB|         Cu         2.557239129    4.410200098    0.557406973
 NEB|         Cu         5.105030147    4.410471087    0.556843847
 NEB|         Cu         7.653049188    4.410972081    0.556281839
 NEB|         Cu        10.201235248    4.411523971    0.555838006
 NEB|         Cu        12.749486075    4.411838908    0.555656010
 NEB|         Cu        15.297707868    4.411752879    0.555802835
 NEB|         Cu        17.845832789    4.411388899    0.556222853
 NEB|         Cu        20.393798743    4.410954027    0.556808903
 NEB|         Cu        22.941585691    4.410617005    0.557432987
 NEB|         Cu        25.489232704    4.410424050    0.557959138
 NEB|         Cu        28.036775808    4.410359012    0.558323135
 NEB|         Cu        30.584248848    4.410360125    0.558510177
 NEB|         Cu        33.131667730    4.410370042    0.558548144
 NEB|         Cu        35.679050139    4.410334965    0.558454089
 NEB|         Cu        38.226443997    4.410250025    0.558236128
 NEB|         Cu         1.283213127    6.616514120    0.557243989
 NEB|         Cu         3.830709183    6.616495140    0.556226860
 NEB|         Cu         6.378487207    6.616760054    0.555005697
 NEB|         Cu         8.926635198    6.617258888    0.553883816
 NEB|         Cu        11.475098072    6.617732797    0.553234036
 NEB|         Cu        14.023682000    6.617880824    0.553285046
 NEB|         Cu        16.572097738    6.617663926    0.553964021
 NEB|         Cu        19.120233603    6.617302970    0.555025891
 NEB|         Cu        21.668069692    6.616995852    0.556166967
 NEB|         Cu        24.215707713    6.616812959    0.557144090
 NEB|         Cu        26.763228873    6.616767000    0.557860069
 NEB|         Cu        29.310679911    6.616812046    0.558304171
 NEB|         Cu        31.858071856    6.616883066    0.558523202
 NEB|         Cu        34.405421755    6.616905051    0.558543163
 NEB|         Cu        36.952744128    6.616829012    0.558353211
 NEB|         Cu        39.500072207    6.616672087    0.557939087
 NEB|         Cu         0.009597152    8.823080070    0.557547961
 NEB|         Cu         2.556944163    8.822856091    0.556380779
 NEB|         Cu         5.104418237    8.822824176    0.554627685
 NEB|         Cu         7.652229141    8.823102011    0.552529775
 NEB|         Cu        10.200505919    8.823536773    0.550732973
 NEB|         Cu        12.749192686    8.823814840    0.550016989
 NEB|         Cu        15.297919736    8.823791831    0.550702865
 NEB|         Cu        17.846312837    8.823547908    0.552296775
 NEB|         Cu        20.394320802    8.823294839    0.554160865
 NEB|         Cu        22.942044838    8.823136816    0.555809050
 NEB|         Cu        25.489598967    8.823113921    0.557053014
 NEB|         Cu        28.037057976    8.823213903    0.557896094
 NEB|         Cu        30.584451834    8.823365119    0.558408250
 NEB|         Cu        33.131816773    8.823473058    0.558632240
 NEB|         Cu        35.679168857    8.823466002    0.558581071
 NEB|         Cu        38.226501123    8.823320998    0.558236109
 NEB|         Cu         1.283552311   11.029453125    0.557005821
 NEB|         Cu         3.830943174   11.029212145    0.555257752
 NEB|         Cu         6.378486000   11.029259090    0.552692745
 NEB|         Cu         8.926370846   11.029613944    0.549786094
 NEB|         Cu        11.474702758   11.029951704    0.547713034
 NEB|         Cu        14.023351914   11.030004717    0.547470844
 NEB|         Cu        16.571914830   11.029824943    0.549021398
 NEB|         Cu        19.120149685   11.029573968    0.551444629
 NEB|         Cu        21.668075775   11.029402884    0.553816926
 NEB|         Cu        24.215759098   11.029390797    0.555764844
 NEB|         Cu        26.763266008   11.029548938    0.557194996
 NEB|         Cu        29.310677959   11.029792119    0.558138301
 NEB|         Cu        31.858094915   11.029991070    0.558638174
 NEB|         Cu        34.405539934   11.030067069    0.558770274
 NEB|         Cu        36.952987969   11.029995939    0.558586091
 NEB|         Cu        39.500401260   11.029771974    0.558039017
 NEB|         Cu         0.010280110   13.236170937    0.557744816
 NEB|         Cu         2.557743191   13.235826066    0.556337836
 NEB|         Cu         5.105200046   13.235666150    0.553967024
 NEB|         Cu         7.652818835   13.235907039    0.550692998
 NEB|         Cu        10.200756664   13.236362866    0.547503087
 NEB|         Cu        12.748998743   13.236556855    0.545849984
 NEB|         Cu        15.297379072   13.236367895    0.546409834
 NEB|         Cu        17.845672709   13.236028927    0.548623408
 NEB|         Cu        20.393767868   13.235756967    0.551449191
 NEB|         Cu        22.941593247   13.235695789    0.554105586
 NEB|         Cu        25.489174008   13.235868042    0.556256943
 NEB|         Cu        28.036639862   13.236171112    0.557725283
 NEB|         Cu        30.584155964   13.236435079    0.558523146
 NEB|         Cu        33.131743886   13.236580960    0.558841157
 NEB|         Cu        35.679359078   13.236588989    0.558819262
 NEB|         Cu        38.226963071   13.236451893    0.558491843
 NEB|         Cu         1.284557024   15.442541903    0.557404641
 NEB|         Cu         3.832108069   15.442280133    0.555680778
 NEB|         Cu         6.379614919   15.442350080    0.552804187
 NEB|         Cu         8.927267740   15.442855983    0.549224941
 NEB|         Cu        11.475161638   15.443327839    0.546452867
 NEB|         Cu        14.023198817   15.443287885    0.545710643
 NEB|         Cu        16.571273984   15.442889769    0.546972410
 NEB|         Cu        19.119304998   15.442462957    0.549556743
 NEB|         Cu        21.667150120   15.442231017    0.552595363
 NEB|         Cu        24.214774891   15.442286049    0.555333191
 NEB|         Cu        26.762328842   15.442533147    0.557253352
 NEB|         Cu        29.309993955   15.442802055    0.558286076
 NEB|         Cu        31.857751819   15.442985031    0.558751117
 NEB|         Cu        34.405540111   15.443058919    0.558871057
 NEB|         Cu        36.953331162   15.443006919    0.558720292
 NEB|         Cu        39.501095220   15.442828807    0.558288958
 NEB|         Cu         0.011076187   17.649157998    0.558052025
 NEB|         Cu         2.558883020   17.648944956    0.557123642
 NEB|         Cu         5.106501908   17.648914067    0.555218864
 NEB|         Cu         7.654030804   17.649346910    0.552134078
 NEB|         Cu        10.201666752   17.650052845    0.548882846
 NEB|         Cu        12.749423751   17.650329962    0.547115829
 NEB|         Cu        15.297176905   17.650085016    0.547291673
 NEB|         Cu        17.844947925   17.649614137    0.549043380
 NEB|         Cu        20.392665916   17.649132496    0.551841527
 NEB|         Cu        22.940274824   17.648901132    0.554738347
 NEB|         Cu        25.487916989   17.648937069    0.556835392
 NEB|         Cu        28.035725022   17.649118043    0.557972955
 NEB|         Cu        30.583631904   17.649299944    0.558523033
 NEB|         Cu        33.131561127   17.649413917    0.558752008
 NEB|         Cu        35.679493141   17.649432908    0.558743056
 NEB|         Cu        38.227413192   17.649342934    0.558521249
 NEB|         Cu         1.285228135   19.855497140    0.557868171
 NEB|         Cu         3.833082074   19.855446134    0.556977814
 NEB|         Cu         6.380726800   19.855769877    0.555065986
 NEB|         Cu         8.928266784   19.856564884    0.552238941
 NEB|         Cu        11.475836707   19.857203936    0.549939924
 NEB|         Cu        14.023375814   19.857233098    0.549285901
 NEB|         Cu        16.570880964   19.856882284    0.550113826
 NEB|         Cu        19.118415953   19.856310533    0.552121775
 NEB|         Cu        21.665975942   19.855738099    0.554635975
 NEB|         Cu        24.213654133   19.855452855    0.556590301
 NEB|         Cu        26.761526099   19.855453080    0.557683939
 NEB|         Cu        29.309506988   19.855579073    0.558252010
 NEB|         Cu        31.857512937   19.855701025    0.558540932
 NEB|         Cu        34.405518015   19.855763917    0.558624024
 NEB|         Cu        36.953517924   19.855746761    0.558547063
 NEB|         Cu        39.501499390   19.855643843    0.558312206
 NEB|         Cu         0.011280046   22.061963791    0.558182192
 NEB|         Cu         2.559221072   22.061913093    0.557806226
 NEB|         Cu         5.107038120   22.062099117    0.556985148
 NEB|         Cu         7.654659877   22.062783875    0.555238280
 NEB|         Cu        10.202201789   22.063678843    0.553132063
 NEB|         Cu        12.749685800   22.064080930    0.551986097
 NEB|         Cu        15.297088900   22.063934139    0.552101024
 NEB|         Cu        17.844520935   22.063438374    0.553201064
 NEB|         Cu        20.392034933   22.062712106    0.554987819
 NEB|         Cu        22.939686042   22.062119808    0.556587164
 NEB|         Cu        25.487524003   22.061889943    0.557539104
 NEB|         Cu        28.035479026   22.061896980    0.558061038
 NEB|         Cu        30.583484913   22.061986790    0.558352814
 NEB|         Cu        33.131500068   22.062058886    0.558476026
 NEB|         Cu        35.679515851   22.062083843    0.558476144
 NEB|         Cu        38.227520126   22.062047811    0.558384046
[...]
 *******************************************************************************
 *******************************************************************************
 RMS DISPLACEMENT =   0.00004     [ 0.00500]                               (YES)
 MAX DISPLACEMENT =   0.00474     [ 0.00200]                               ( NO)
 RMS FORCE        =   0.00003     [ 0.00500]                               (YES)
 MAX FORCE        =   0.00266     [ 0.00300]                               (YES)
 *******************************************************************************
 LS| Increasing the number of point from     2 to     3.
 LS| Increasing the number of point from     3 to     4.
 SD| Stepsize in SD after linesearch                                    0.017375
Entering into the DIIS module. Error vector number::   6

 *******************************************************************************
 BAND TYPE                     =                                          CI-NEB
 BAND TYPE OPTIMIZATION        =                                              SD
 STEP NUMBER                   =                                              47
 NUMBER OF NEB REPLICA         =                                              14
 DISTANCES REP =        0.761601        0.753270        0.747370        0.735880
                        0.714393        0.696102        0.669890        0.652667
                        0.649928        2.276429        2.249627        2.192777
                        2.133589
 ENERGIES [au] =     -532.607570     -532.610356     -532.609806     -532.608393
                     -532.606318     -532.602995     -532.597300     -532.586812
                     -532.567319     -532.539751     -532.694394     -532.699476
                     -532.700238     -532.700564
 BAND TOTAL ENERGY [au]        =                            -7456.43538959081616
 *******************************************************************************
 *******************************************************************************
 RMS DISPLACEMENT =   0.00005     [ 0.00500]                               (YES)
 MAX DISPLACEMENT =   0.00446     [ 0.00200]                               ( NO)
 RMS FORCE        =   0.00003     [ 0.00500]                               (YES)
 MAX FORCE        =   0.00354     [ 0.00300]                               ( NO)
 *******************************************************************************
 SD| Stepsize in SD no linesearch performed                             0.012148
Entering into the DIIS module. Error vector number::   7
Applying DIIS equations
Applying DIIS equations with the last    2 error vectors
DIIS Matrix     3x     3.
    0.000148    0.000000    1.000000
    0.000000    0.000302    1.000000
    1.000000    1.000000    0.000000
Applying DIIS equations with the last    3 error vectors
DIIS Matrix     4x     4.
    0.000148    0.000000    0.000180    1.000000
    0.000000    0.000302    0.000000    1.000000
    0.000180    0.000000    0.000232    1.000000
    1.000000    1.000000    1.000000    0.000000
 DIIS|The direction of the DIIS step, can be compared to the reference step.
 DIIS|If the angle is grater than a specified value, the DIIS step is not
 DIIS|acceptable. Value exceeded. Reset DIIS!
 DIIS|Present Cosine < 0.744> compared with the optimal value < 0.840> .
Exiting DIIS accepting     3 errors.

 *******************************************************************************
 BAND TYPE                     =                                          CI-NEB
 BAND TYPE OPTIMIZATION        =                                            DIIS
 STEP NUMBER                   =                                              48
 NUMBER OF NEB REPLICA         =                                              14
 DISTANCES REP =        0.761340        0.753391        0.747136        0.735887
                        0.714637        0.695847        0.670175        0.653031
                        0.650128        2.275495        2.248676        2.192407
                        2.133146
 ENERGIES [au] =     -532.607570     -532.610357     -532.609809     -532.608397
                     -532.606324     -532.602999     -532.597311     -532.586839
                     -532.567340     -532.539752     -532.694386     -532.699483
                     -532.700244     -532.700564
 BAND TOTAL ENERGY [au]        =                            -7456.43579392313222
 *******************************************************************************
 *******************************************************************************
 RMS DISPLACEMENT =   0.00002     [ 0.00500]                               (YES)
 MAX DISPLACEMENT =   0.00238     [ 0.00200]                               ( NO)
 RMS FORCE        =   0.00002     [ 0.00500]                               (YES)
 MAX FORCE        =   0.00224     [ 0.00300]                               (YES)
 *******************************************************************************
 LS| Increasing the number of point from     2 to     3.
 LS| Increasing the number of point from     3 to     4.
 SD| Stepsize in SD after linesearch                                    0.829834
Entering into the DIIS module. Error vector number::   3

 *******************************************************************************
 BAND TYPE                     =                                          CI-NEB
 BAND TYPE OPTIMIZATION        =                                              SD
 STEP NUMBER                   =                                              49
 NUMBER OF NEB REPLICA         =                                              14
 DISTANCES REP =        0.742355        0.773807        0.719272        0.739645
                        0.759225        0.667260        0.724887        0.726305
                        0.679633        2.132125        2.124720        2.137325
                        2.111187
 ENERGIES [au] =     -532.607570     -532.610602     -532.610113     -532.608975
                     -532.607070     -532.603645     -532.598674     -532.588419
                     -532.567124     -532.539808     -532.692669     -532.700360
                     -532.700990     -532.700564
 BAND TOTAL ENERGY [au]        =                            -7456.48731722343928
 *******************************************************************************
 *******************************************************************************
 RMS DISPLACEMENT =   0.00236     [ 0.00500]                               (YES)
 MAX DISPLACEMENT =   0.23750     [ 0.00200]                               ( NO)
 RMS FORCE        =   0.00017     [ 0.00500]                               (YES)
 MAX FORCE        =   0.02626     [ 0.00300]                               ( NO)
 *******************************************************************************
 SD| Stepsize in SD after linesearch                                    0.047317
Entering into the DIIS module. Error vector number::   4

 *******************************************************************************
 BAND TYPE                     =                                          CI-NEB
 BAND TYPE OPTIMIZATION        =                                              SD
 STEP NUMBER                   =                                              50
 NUMBER OF NEB REPLICA         =                                              14
 DISTANCES REP =        0.743596        0.771549        0.722222        0.739745
                        0.755107        0.672584        0.721799        0.723537
                        0.679137        2.134811        2.126320        2.135560
                        2.111402
 ENERGIES [au] =     -532.607570     -532.610603     -532.610117     -532.608976
                     -532.607068     -532.603672     -532.598728     -532.588759
                     -532.568182     -532.539804     -532.692683     -532.700367
                     -532.700993     -532.700564
 BAND TOTAL ENERGY [au]        =                            -7456.48845059605719
 *******************************************************************************
 *******************************************************************************
 RMS DISPLACEMENT =   0.00013     [ 0.00500]                               (YES)
 MAX DISPLACEMENT =   0.02049     [ 0.00200]                               ( NO)
 RMS FORCE        =   0.00003     [ 0.00500]                               (YES)
 MAX FORCE        =   0.00160     [ 0.00300]                               (YES)
 *******************************************************************************
 LS| Increasing the number of point from     2 to     3.
 SD| Stepsize in SD after linesearch                                    0.039165
Entering into the DIIS module. Error vector number::   5

 *******************************************************************************
 BAND TYPE                     =                                          CI-NEB
 BAND TYPE OPTIMIZATION        =                                              SD
 STEP NUMBER                   =                                              51
 NUMBER OF NEB REPLICA         =                                              14
 DISTANCES REP =        0.748751        0.762233        0.734521        0.740052
                        0.738566        0.694660        0.712376        0.717682
                        0.676633        2.143288        2.132932        2.128320
                        2.112141
 ENERGIES [au] =     -532.607570     -532.610608     -532.610134     -532.608978
                     -532.607062     -532.603761     -532.598646     -532.588720
                     -532.568510     -532.539793     -532.692718     -532.700390
                     -532.701007     -532.700564
 BAND TOTAL ENERGY [au]        =                            -7456.48794946359794
 *******************************************************************************
 *******************************************************************************
 RMS DISPLACEMENT =   0.00011     [ 0.00500]                               (YES)
 MAX DISPLACEMENT =   0.00580     [ 0.00200]                               ( NO)
 RMS FORCE        =   0.00005     [ 0.00500]                               (YES)
 MAX FORCE        =   0.00566     [ 0.00300]                               ( NO)
 *******************************************************************************
 LS| Increasing the number of point from     2 to     3.
 LS| Increasing the number of point from     3 to     4.
 SD| Stepsize in SD after linesearch                                    0.013488
Entering into the DIIS module. Error vector number::   6

 *******************************************************************************
 BAND TYPE                     =                                          CI-NEB
 BAND TYPE OPTIMIZATION        =                                              SD
 STEP NUMBER                   =                                              52
 NUMBER OF NEB REPLICA         =                                              14
 DISTANCES REP =        0.749346        0.761165        0.736006        0.739985
                        0.736888        0.697076        0.711576        0.715893
                        0.679210        2.142218        2.133569        2.127531
                        2.112047
 ENERGIES [au] =     -532.607570     -532.610610     -532.610137     -532.608980
                     -532.607062     -532.603773     -532.598649     -532.588758
                     -532.568605     -532.539794     -532.692717     -532.700394
                     -532.701011     -532.700564
 BAND TOTAL ENERGY [au]        =                            -7456.48827490511121
 *******************************************************************************
 *******************************************************************************
 RMS DISPLACEMENT =   0.00004     [ 0.00500]                               (YES)
 MAX DISPLACEMENT =   0.00482     [ 0.00200]                               ( NO)
 RMS FORCE        =   0.00002     [ 0.00500]                               (YES)
 MAX FORCE        =   0.00128     [ 0.00300]                               (YES)
 *******************************************************************************
 SD| Stepsize in SD no linesearch performed                             0.006825
Entering into the DIIS module. Error vector number::   7
Applying DIIS equations
Applying DIIS equations with the last    2 error vectors
DIIS Matrix     3x     3.
    0.000047    0.000000    1.000000
    0.000000    0.000182    1.000000
    1.000000    1.000000    0.000000
Applying DIIS equations with the last    3 error vectors
DIIS Matrix     4x     4.
    0.000047    0.000000    0.000210    1.000000
    0.000000    0.000182    0.000000    1.000000
    0.000210    0.000000    0.001534    1.000000
    1.000000    1.000000    1.000000    0.000000
Applying DIIS equations with the last    4 error vectors
DIIS Matrix     5x     5.
    0.000047    0.000000    0.000210   -0.000043    1.000000
    0.000000    0.000182    0.000000    0.000356    1.000000
    0.000210    0.000000    0.001534    0.000026    1.000000
   -0.000043    0.000356    0.000026    0.002239    1.000000
    1.000000    1.000000    1.000000    1.000000    0.000000
Applying DIIS equations with the last    5 error vectors
DIIS Matrix     6x     6.
    0.000047    0.000000    0.000210   -0.000043    0.003100    1.000000
    0.000000    0.000182    0.000000    0.000356    0.002292    1.000000
    0.000210    0.000000    0.001534    0.000026    0.010088    1.000000
   -0.000043    0.000356    0.000026    0.002239    0.000001    1.000000
    0.003100    0.002292    0.010088    0.000001    0.688625    1.000000
    1.000000    1.000000    1.000000    1.000000    1.000000    0.000000
Applying DIIS equations with the last    6 error vectors
DIIS Matrix     7x     7.
    0.000047    0.000000    0.000210   -0.000043    0.003100    0.000051    1.000000
    0.000000    0.000182    0.000000    0.000356    0.002292   -0.000062    1.000000
    0.000210    0.000000    0.001534    0.000026    0.010088    0.000179    1.000000
   -0.000043    0.000356    0.000026    0.002239    0.000001   -0.000351    1.000000
    0.003100    0.002292    0.010088    0.000001    0.688625    0.006860    1.000000
    0.000051   -0.000062    0.000179   -0.000351    0.006860    0.000148    1.000000
    1.000000    1.000000    1.000000    1.000000    1.000000    1.000000    0.000000
 DIIS|The direction of the DIIS step, can be compared to the reference step.
 DIIS|If the angle is grater than a specified value, the DIIS step is not
 DIIS|acceptable. Value exceeded. Reset DIIS!
 DIIS|Present Cosine <-0.564> compared with the optimal value < 0.620> .
Exiting DIIS accepting     6 errors.

 *******************************************************************************
 BAND TYPE                     =                                          CI-NEB
 BAND TYPE OPTIMIZATION        =                                            DIIS
 STEP NUMBER                   =                                              53
 NUMBER OF NEB REPLICA         =                                              14
 DISTANCES REP =        0.749986        0.760021        0.737612        0.739900
                        0.735142        0.699682        0.710923        0.713845
                        0.682022        2.141088        2.134167        2.126683
                        2.111900
 ENERGIES [au] =     -532.607570     -532.610611     -532.610140     -532.608982
                     -532.607064     -532.603785     -532.598644     -532.588756
                     -532.568688     -532.539794     -532.692715     -532.700400
                     -532.701015     -532.700564
 BAND TOTAL ENERGY [au]        =                            -7456.48857019394745
 *******************************************************************************
 *******************************************************************************
 RMS DISPLACEMENT =   0.00002     [ 0.00500]                               (YES)
 MAX DISPLACEMENT =   0.00137     [ 0.00200]                               (YES)
 RMS FORCE        =   0.00002     [ 0.00500]                               (YES)
 MAX FORCE        =   0.00109     [ 0.00300]                               (YES)
 *******************************************************************************

 -------------------------------------------------------------------------------
 -                                                                             -
 -                         MESSAGE PASSING PERFORMANCE                         -
 -                                                                             -
 -------------------------------------------------------------------------------

 ROUTINE             CALLS  TOT TIME [s]  AVE VOLUME [Bytes]  PERFORMANCE [MB/s]
 MP_Group                1         0.000
 MP_Bcast              154         0.012           12378054.           160186.58
 MP_Allreduce           47         0.001                  8.                0.57
 MP_comm_split           1         0.000
 -------------------------------------------------------------------------------


 -------------------------------------------------------------------------------
 -                                                                             -
 -                           R E F E R E N C E S                               -
 -                                                                             -
 -------------------------------------------------------------------------------
 
 CP2K version 2.2.86 (Development Version), the CP2K developers group (2010).
 CP2K is freely available from http://cp2k.berlios.de/ .

 Frigo, M; Johnson, SG. 
 PROCEEDINGS OF THE IEEE, 93 (2), 216-231 (2005). 
 The design and implementation of FFTW3.
 http://dx.doi.org/10.1109/JPROC.2004.840301


 Henkelman, G; Uberuaga, BP; Jonsson, H. 
 JOURNAL OF CHEMICAL PHYSICS, 113 (22), 9901-9904 (2000). 
 A climbing image nudged elastic band method for finding saddle points
 and minimum energy paths.
 http://dx.doi.org/10.1063/1.1329672


 Henkelman, G; Jonsson, H. 
 JOURNAL OF CHEMICAL PHYSICS, 113 (22), 9978-9985 (2000). 
 Improved tangent estimate in the nudged elastic band method for finding
 minimum energy paths and saddle points.
 http://dx.doi.org/10.1063/1.1323224


 FOILES, SM; BASKES, MI; DAW, MS. 
 PHYSICAL REVIEW B, 33 (12), 7983-7991 (1986). 
 EMBEDDED-ATOM-METHOD FUNCTIONS FOR THE FCC METALS CU, AG, AU, NI, PD,
 PT, AND THEIR ALLOYS.
 http://dx.doi.org/10.1103/PhysRevB.33.7983


 -------------------------------------------------------------------------------
 -                                                                             -
 -                                T I M I N G                                  -
 -                                                                             -
 -------------------------------------------------------------------------------
 SUBROUTINE                       CALLS  ASD         SELF TIME        TOTAL TIME
                                              AVERAGE  MAXIMUM  AVERAGE  MAXIMUM
 CP2K                                 1  1.0    0.203    0.397  656.354  657.927
 neb                                  1  2.0  654.492  656.856  655.839  657.412
 -------------------------------------------------------------------------------

  **** **** ******  **  PROGRAM ENDED AT                 2011-02-01 12:25:39.997
 ***** ** ***  *** **   PROGRAM RAN ON                                   node047
 **    ****   ******    PROGRAM RAN BY                                          
 ***** **    ** ** **   PROGRAM PROCESS ID                                 25807
  **** **  *******  **  PROGRAM STOPPED IN  /mnt/workspc/pic127/CP2KTUTORIAL/EX2
